
                                 *****************
                                 * O   R   C   A *
                                 *****************

           --- An Ab Initio, DFT and Semiempirical electronic structure package ---

                  #######################################################
                  #                        -***-                        #
                  #          Department of theory and spectroscopy      #
                  #               Directorship: Frank Neese             #
                  #        Max Planck Institute fuer Kohlenforschung    #
                  #                Kaiser Wilhelm Platz 1               #
                  #                 D-45470 Muelheim/Ruhr               #
                  #                      Germany                        #
                  #                                                     #
                  #                  All rights reserved                #
                  #                        -***-                        #
                  #######################################################


                         Program Version 4.2.1 -  RELEASE  -


 With contributions from (in alphabetic order):
   Daniel Aravena         : Magnetic Suceptibility
   Michael Atanasov       : Ab Initio Ligand Field Theory (pilot matlab implementation)
   Alexander A. Auer      : GIAO ZORA, VPT2
   Ute Becker             : Parallelization
   Giovanni Bistoni       : ED, misc. LED, open-shell LED, HFLD
   Martin Brehm           : Molecular dynamics
   Dmytro Bykov           : SCF Hessian
   Vijay G. Chilkuri      : MRCI spin determinant printing, contributions to CSF-ICE
   Dipayan Datta          : RHF DLPNO-CCSD density
   Achintya Kumar Dutta   : EOM-CC, STEOM-CC
   Dmitry Ganyushin       : Spin-Orbit,Spin-Spin,Magnetic field MRCI
   Miquel Garcia          : C-PCM Hessian, Gaussian charge scheme
   Yang Guo               : DLPNO-NEVPT2, CIM, IAO-localization
   Andreas Hansen         : Spin unrestricted coupled pair/coupled cluster methods
   Benjamin Helmich-Paris : CASSCF linear response (MC-RPA)
   Lee Huntington         : MR-EOM, pCC
   Robert Izsak           : Overlap fitted RIJCOSX, COSX-SCS-MP3, EOM
   Christian Kollmar      : KDIIS, OOCD, Brueckner-CCSD(T), CCSD density
   Simone Kossmann        : Meta GGA functionals, TD-DFT gradient, OOMP2, MP2 Hessian
   Martin Krupicka        : AUTO-CI
   Lucas Lang             : DCDCAS
   Dagmar Lenk            : GEPOL surface, SMD
   Dimitrios Liakos       : Extrapolation schemes; Compound Job, initial MDCI parallelization
   Dimitrios Manganas     : Further ROCIS development; embedding schemes
   Dimitrios Pantazis     : SARC Basis sets
   Taras Petrenko         : DFT Hessian,TD-DFT gradient, ASA, ECA, R-Raman, ABS, FL, XAS/XES, NRVS
   Peter Pinski           : DLPNO-MP2, DLPNO-MP2 Gradient
   Christoph Reimann      : Effective Core Potentials
   Marius Retegan         : Local ZFS, SOC
   Christoph Riplinger    : Optimizer, TS searches, QM/MM, DLPNO-CCSD(T), (RO)-DLPNO pert. Triples
   Tobias Risthaus        : Range-separated hybrids, TD-DFT gradient, RPA, STAB
   Michael Roemelt        : Original ROCIS implementation
   Masaaki Saitow         : Open-shell DLPNO-CCSD energy and density
   Barbara Sandhoefer     : DKH picture change effects
   Avijit Sen             : IP-ROCIS
   Kantharuban Sivalingam : CASSCF convergence, NEVPT2, FIC-MRCI
   Bernardo de Souza      : ESD, SOC TD-DFT
   Georgi Stoychev        : AutoAux, RI-MP2 NMR
   Willem Van den Heuvel  : Paramagnetic NMR
   Boris Wezisla          : Elementary symmetry handling
   Frank Wennmohs         : Technical directorship


 We gratefully acknowledge several colleagues who have allowed us to
 interface, adapt or use parts of their codes:
   Stefan Grimme, W. Hujo, H. Kruse,             : VdW corrections, initial TS optimization,
                  C. Bannwarth                     DFT functionals, gCP, sTDA/sTD-DF
   Ed Valeev, F. Pavosevic, A. Kumar             : LibInt (2-el integral package), F12 methods
   Garnet Chan, S. Sharma, J. Yang, R. Olivares  : DMRG
   Ulf Ekstrom                                   : XCFun DFT Library
   Mihaly Kallay                                 : mrcc  (arbitrary order and MRCC methods)
   Andreas Klamt, Michael Diedenhofen            : otool_cosmo (COSMO solvation model)
   Jiri Pittner, Ondrej Demel                    : Mk-CCSD
   Frank Weinhold                                : gennbo (NPA and NBO analysis)
   Christopher J. Cramer and Donald G. Truhlar   : smd solvation model
   Lars Goerigk                                  : TD-DFT with DH, B97 family of functionals
   V. Asgeirsson, H. Jonsson                     : NEB implementation
   FAccTs GmbH                                   : IRC, NEB, NEB-TS, Multilevel, MM, QM/MM, CI optimization
   S Lehtola, MJT Oliveira, MAL Marques          : LibXC Library


 Your calculation uses the libint2 library for the computation of 2-el integrals
 For citations please refer to: http://libint.valeyev.net

 Your ORCA version has been built with support for libXC version: 4.2.3
 For citations please refer to: https://tddft.org/programs/libxc/

 This ORCA versions uses:
   CBLAS   interface :  Fast vector & matrix operations
   LAPACKE interface :  Fast linear algebra routines
   SCALAPACK package :  Parallel linear algebra routines




***************************************
The coordinates will be read from file: init.xyz
***************************************


Your calculation utilizes the semiempirical GFN2-xTB method
Please cite in your paper:
C. Bannwarth, Ehlert S., S. Grimme,  J. Chem. Theory Comput., 15, (2019), 1652.
   

----- Orbital basis set information -----
Your calculation utilizes the basis: def2-SVP
   F. Weigend and R. Ahlrichs, Phys. Chem. Chem. Phys. 7, 3297 (2005).

cite the ECPs for Pt [Def2-ECP] as follows:
Ce-Yb(ecp-28): M. Dolg, H. Stoll, H.Preuss, J. Chem. Phys., 1989, 90, 1730-1734.
Y-Cd(ecp-28), Hf-Hg(ecp-46): D. Andrae,U. Haeussermann, M. Dolg, H. Stoll, H. Preuss, Theor. Chim. Acta, 1990, 77, 123-141.
In-Sb(ecp-28), Tl-Bi(ecp-46): B. Metz, H. Stoll, M. Dolg, J. Chem. Phys., 2000, 113, 2563-2569.
Te-Xe(ecp-28), Po-Rn(ecp-46): K. A. Peterson, D. Figgen, E. Goll, H. Stoll, M. Dolg, J. Chem. Phys., 2003, 119, 11113-11123.
Rb(ecp-28), Cs(ecp-46): T. Leininger, A. Nicklass, W. Kuechle, H. Stoll, M. Dolg, A. Bergner, Chem. Phys. Lett., 1996, 255, 274-280.
Sr(ecp-28), Ba(ecp-46): M. Kaupp, P. V. Schleyer, H. Stoll and H. Preuss, J. Chem. Phys., 1991, 94, 1360-1366.
La(ecp-46): M. Dolg, H. Stoll, A. Savin, H. Preuss, Theor. Chim. Acta, 1989, 75, 173-194.
Lu(ecp-28): X. Cao, M. Dolg, J. Chem. Phys., 2001, 115, 7348-7355.

ECP parameters for Pt [Def2-ECP] have been obtained from:
TURBOMOLE (7.0.2)

================================================================================
                                        WARNINGS
                       Please study these warnings very carefully!
================================================================================


WARNING: The environment variable RSH_COMMAND is not set!
  ===> : All Displacements for the Numerical Hessian calculation
         will be started on localhost

WARNING: Geometry Optimization
  ===> : Switching off AutoStart
         For restart on a previous wavefunction, please use MOREAD

WARNING: Found dipole moment calculation with XTB calculation
  ===> : Switching off dipole moment calculation


INFO   : the flag for use of LIBINT has been found!

================================================================================
                                       INPUT FILE
================================================================================
NAME = opt.inp
|  1> # SMD_test
|  2> ! OPT NUMFREQ XTB2 RKS TightSCF TightOpt SlowConv NOFINALGRID GRID6 NOSOSCF
|  3>  
|  4> * xyzfile 0 1 init.xyz
|  5> 
|  6> %scf
|  7> MaxIter 800
|  8> DIISMaxEq 15
|  9> directresetfreq 4
| 10> end
| 11>  
| 12> %pal
| 13> nprocs 8
| 14> end
| 15> 
| 16> %geom
| 17> MaxIter 1000
| 18> end
| 19> 
| 20> %freq
| 21> Temp 298.15
| 22> end
| 23> 
| 24>                          ****END OF INPUT****
================================================================================

                       *****************************
                       * Geometry Optimization Run *
                       *****************************

Geometry optimization settings:
Update method            Update   .... BFGS
Choice of coordinates    CoordSys .... Z-matrix Internals
Initial Hessian          InHess   .... Almoef's Model

Convergence Tolerances:
Energy Change            TolE     ....  1.0000e-06 Eh
Max. Gradient            TolMAXG  ....  1.0000e-04 Eh/bohr
RMS Gradient             TolRMSG  ....  3.0000e-05 Eh/bohr
Max. Displacement        TolMAXD  ....  1.0000e-03 bohr
RMS Displacement         TolRMSD  ....  6.0000e-04 bohr
Strict Convergence                ....  False
------------------------------------------------------------------------------
                        ORCA OPTIMIZATION COORDINATE SETUP
------------------------------------------------------------------------------

The optimization will be done in new redundant internal coordinates
Making redundant internal coordinates   ...  (new redundants) done
Evaluating the initial hessian          ...  (Almloef) done
Evaluating the coordinates              ...  done
Calculating the B-matrix                .... done
Calculating the G-matrix                .... done
Diagonalizing the G-matrix              .... done
Small eigenvalue found = 1.604e-02
The first mode is                       ....  155
The number of degrees of freedom        ....  135

    -----------------------------------------------------------------
                    Redundant Internal Coordinates


    -----------------------------------------------------------------
         Definition                    Initial Value    Approx d2E/dq
    -----------------------------------------------------------------
      1. B(O   1,Pt  0)                  2.0097         0.079945   
      2. B(C   2,O   1)                  1.2888         0.811651   
      3. B(C   3,C   2)                  1.5383         0.362339   
      4. B(C   4,C   3)                  1.5389         0.361497   
      5. B(O   5,C   4)                  1.2888         0.811657   
      6. B(O   5,Pt  0)                  2.0123         0.079189   
      7. B(O   6,C   4)                  1.2171         1.056022   
      8. B(C   7,C   3)                  1.5501         0.347028   
      9. B(C   8,C   7)                  1.4998         0.417370   
     10. B(C   9,C   8)                  1.3921         0.620107   
     11. B(C  10,C   9)                  1.3829         0.641358   
     12. B(C  11,C  10)                  1.3851         0.636156   
     13. B(C  12,C  11)                  1.3849         0.636727   
     14. B(C  13,C  12)                  1.3884         0.628458   
     15. B(C  13,C   8)                  1.3948         0.613952   
     16. B(O  14,C   2)                  1.2176         1.054249   
     17. B(H  15,C   3)                  1.0956         0.352809   
     18. B(H  16,C   7)                  1.0921         0.357297   
     19. B(H  17,C   7)                  1.0933         0.355751   
     20. B(H  18,C   9)                  1.0802         0.373351   
     21. B(H  19,C  10)                  1.0805         0.372823   
     22. B(H  20,C  11)                  1.0814         0.371591   
     23. B(H  21,C  12)                  1.0825         0.370103   
     24. B(H  22,C  13)                  1.0809         0.372367   
     25. B(N  23,Pt  0)                  2.0804         0.061663   
     26. B(C  24,N  23)                  1.4630         0.428033   
     27. B(C  25,N  23)                  1.4715         0.414775   
     28. B(C  26,C  25)                  1.5309         0.372384   
     29. B(H  27,C  26)                  1.0979         0.349821   
     30. B(H  28,C  26)                  1.0924         0.356993   
     31. B(N  29,C  26)                  1.4755         0.408822   
     32. B(N  29,Pt  0)                  2.0948         0.058476   
     33. B(C  30,N  29)                  1.4620         0.429582   
     34. B(H  31,C  30)                  1.0970         0.350981   
     35. B(H  32,C  30)                  1.0890         0.361388   
     36. B(H  33,H  20)                  2.6768         0.000203   
     37. B(H  33,C  11)                  2.5763         0.001532   
     38. B(H  33,C  30)                  1.0884         0.362274   
     39. B(C  34,N  29)                  1.4657         0.423800   
     40. B(H  35,C  25)                  1.0937         0.355293   
     41. B(H  36,C  25)                  1.0998         0.347415   
     42. B(C  37,N  23)                  1.4661         0.423166   
     43. B(H  38,O   1)                  2.6457         0.001063   
     44. B(H  38,C  37)                  1.0897         0.360481   
     45. B(H  39,C  37)                  1.0969         0.351143   
     46. B(H  40,C  37)                  1.0885         0.362150   
     47. B(H  41,C  24)                  1.0961         0.352172   
     48. B(H  42,H  22)                  2.6730         0.000206   
     49. B(H  42,H  21)                  2.2512         0.000968   
     50. B(H  42,C  24)                  1.0873         0.363752   
     51. B(H  43,O   1)                  2.4360         0.002297   
     52. B(H  43,C  24)                  1.0891         0.361316   
     53. B(H  44,C  34)                  1.0896         0.360671   
     54. B(H  45,O   5)                  2.3262         0.003438   
     55. B(H  45,C  34)                  1.0895         0.360809   
     56. B(H  46,C  34)                  1.0958         0.352481   
     57. A(O   5,Pt  0,N  29)           89.7791         0.220061   
     58. A(N  23,Pt  0,N  29)           85.6225         0.212846   
     59. A(O   1,Pt  0,N  29)          171.4755         0.220343   
     60. A(O   1,Pt  0,N  23)           89.4153         0.221930   
     61. A(O   5,Pt  0,N  23)          173.1864         0.221644   
     62. A(O   1,Pt  0,O   5)           94.5210         0.229673   
     63. A(Pt  0,O   1,C   2)          125.6545         0.321494   
     64. A(O   1,C   2,C   3)          120.7673         0.411100   
     65. A(O   1,C   2,O  14)          121.0251         0.495803   
     66. A(C   3,C   2,O  14)          118.1135         0.430741   
     67. A(C   4,C   3,H  15)          106.4909         0.321496   
     68. A(C   7,C   3,H  15)          106.8732         0.319356   
     69. A(C   4,C   3,C   7)          108.0723         0.356813   
     70. A(C   2,C   3,C   7)          108.8662         0.356954   
     71. A(C   2,C   3,C   4)          120.2014         0.359443   
     72. A(C   2,C   3,H  15)          105.5952         0.321619   
     73. A(O   5,C   4,O   6)          121.3224         0.495959   
     74. A(C   3,C   4,O   5)          120.1835         0.410931   
     75. A(C   3,C   4,O   6)          118.3785         0.430691   
     76. A(Pt  0,O   5,C   4)          125.8041         0.320995   
     77. A(C   3,C   7,C   8)          113.6272         0.365668   
     78. A(H  16,C   7,H  17)          108.6045         0.289929   
     79. A(C   3,C   7,H  17)          107.8315         0.319790   
     80. A(C   8,C   7,H  16)          108.9707         0.329871   
     81. A(C   3,C   7,H  16)          107.5554         0.320016   
     82. A(C   8,C   7,H  17)          110.1146         0.329635   
     83. A(C   7,C   8,C   9)          119.9774         0.404514   
     84. A(C   9,C   8,C  13)          118.6113         0.433315   
     85. A(C   7,C   8,C  13)          121.3499         0.403802   
     86. A(C   8,C   9,H  18)          119.2190         0.355087   
     87. A(C  10,C   9,H  18)          119.8498         0.357124   
     88. A(C   8,C   9,C  10)          120.9191         0.436735   
     89. A(C   9,C  10,C  11)          120.1247         0.438752   
     90. A(C  11,C  10,H  19)          119.9283         0.356544   
     91. A(C   9,C  10,H  19)          119.9367         0.357038   
     92. A(C  10,C  11,C  12)          119.5649         0.438179   
     93. A(C  12,C  11,H  20)          120.2588         0.356398   
     94. A(C  10,C  11,H  20)          120.1722         0.356344   
     95. A(C  11,C  12,H  21)          119.4449         0.356155   
     96. A(C  13,C  12,H  21)          120.0608         0.355366   
     97. A(C  11,C  12,C  13)          120.4122         0.437218   
     98. A(C  12,C  13,H  22)          120.0975         0.355734   
     99. A(C   8,C  13,C  12)          120.3045         0.434359   
    100. A(C   8,C  13,H  22)          119.3396         0.354328   
    101. A(C  24,N  23,C  37)          108.0633         0.375259   
    102. A(Pt  0,N  23,C  24)          114.8338         0.278667   
    103. A(C  24,N  23,C  25)          110.4043         0.373964   
    104. A(Pt  0,N  23,C  37)          105.9641         0.278176   
    105. A(Pt  0,N  23,C  25)          105.8060         0.277321   
    106. A(C  25,N  23,C  37)          111.7472         0.373228   
    107. A(H  42,C  24,H  43)          108.5661         0.291455   
    108. A(H  41,C  24,H  43)          109.4274         0.289978   
    109. A(N  23,C  24,H  43)          108.6865         0.329866   
    110. A(H  41,C  24,H  42)          109.2126         0.290284   
    111. A(N  23,C  24,H  42)          110.0448         0.330233   
    112. A(N  23,C  24,H  41)          110.8647         0.328473   
    113. A(H  35,C  25,H  36)          108.1947         0.288600   
    114. A(C  26,C  25,H  36)          109.8965         0.322248   
    115. A(N  23,C  25,H  36)          110.7137         0.326043   
    116. A(C  26,C  25,H  35)          109.2847         0.323435   
    117. A(N  23,C  25,H  35)          107.8543         0.327249   
    118. A(N  23,C  25,C  26)          110.8247         0.367412   
    119. A(H  28,C  26,N  29)          108.7223         0.326727   
    120. A(H  27,C  26,N  29)          110.6169         0.325638   
    121. A(H  27,C  26,H  28)          107.5045         0.289128   
    122. A(C  25,C  26,H  28)          109.4408         0.323688   
    123. A(C  25,C  26,H  27)          109.7699         0.322612   
    124. A(C  25,C  26,N  29)          110.7157         0.366503   
    125. A(C  30,N  29,C  34)          108.6570         0.375590   
    126. A(C  26,N  29,C  34)          110.4945         0.372395   
    127. A(C  26,N  29,C  30)          110.9218         0.373266   
    128. A(Pt  0,N  29,C  34)          109.0814         0.275981   
    129. A(Pt  0,N  29,C  30)          110.6666         0.276556   
    130. A(Pt  0,N  29,C  26)          107.0033         0.274465   
    131. A(H  32,C  30,H  33)          108.2115         0.291278   
    132. A(H  31,C  30,H  33)          109.2056         0.289945   
    133. A(N  29,C  30,H  33)          110.4703         0.330208   
    134. A(H  31,C  30,H  32)          109.2135         0.289833   
    135. A(N  29,C  30,H  32)          108.8870         0.330074   
    136. A(N  29,C  30,H  31)          110.8023         0.328485   
    137. A(H  45,C  34,H  46)          109.5651         0.289954   
    138. A(H  44,C  34,H  46)          109.2905         0.289937   
    139. A(N  29,C  34,H  46)          110.9520         0.327982   
    140. A(H  44,C  34,H  45)          107.9454         0.291002   
    141. A(N  29,C  34,H  45)          108.7842         0.329249   
    142. A(N  29,C  34,H  44)          110.2470         0.329228   
    143. A(H  39,C  37,H  40)          108.9803         0.289950   
    144. A(H  38,C  37,H  40)          108.1955         0.291147   
    145. A(N  23,C  37,H  40)          111.1946         0.329369   
    146. A(H  38,C  37,H  39)          109.1559         0.289740   
    147. A(N  23,C  37,H  39)          110.7725         0.327696   
    148. A(N  23,C  37,H  38)          108.4832         0.329118   
    149. D(C   2,O   1,Pt  0,N  29)    132.4528         0.001790   
    150. D(C   2,O   1,Pt  0,O   5)     12.3575         0.001790   
    151. D(C   2,O   1,Pt  0,N  23)   -173.2107         0.001790   
    152. D(O  14,C   2,O   1,Pt  0)   -174.3376         0.061405   
    153. D(C   3,C   2,O   1,Pt  0)      9.2547         0.061405   
    154. D(C   4,C   3,C   2,O   1)    -39.0945         0.009862   
    155. D(H  15,C   3,C   2,O   1)   -159.3236         0.009862   
    156. D(C   4,C   3,C   2,O  14)    144.3955         0.009862   
    157. D(C   7,C   3,C   2,O  14)    -90.2797         0.009862   
    158. D(H  15,C   3,C   2,O  14)     24.1664         0.009862   
    159. D(C   7,C   3,C   2,O   1)     86.2303         0.009862   
    160. D(O   6,C   4,C   3,C   2)   -142.8192         0.009820   
    161. D(O   5,C   4,C   3,H  15)    160.8213         0.009820   
    162. D(O   5,C   4,C   3,C   2)     41.0382         0.009820   
    163. D(O   6,C   4,C   3,C   7)     91.4843         0.009820   
    164. D(O   5,C   4,C   3,C   7)    -84.6583         0.009820   
    165. D(O   6,C   4,C   3,H  15)    -23.0362         0.009820   
    166. D(Pt  0,O   5,C   4,O   6)    171.0419         0.056367   
    167. D(Pt  0,O   5,C   4,C   3)    -12.9312         0.056367   
    168. D(C   4,O   5,Pt  0,N  29)    176.9770         0.001764   
    169. D(C   4,O   5,Pt  0,N  23)   -135.5248         0.001764   
    170. D(C   4,O   5,Pt  0,O   1)    -10.3915         0.001764   
    171. D(H  17,C   7,C   3,C   2)     42.5514         0.009716   
    172. D(H  17,C   7,C   3,C   4)    174.6721         0.009716   
    173. D(C   8,C   7,C   3,H  15)    166.5945         0.009716   
    174. D(H  16,C   7,C   3,C   4)    -68.3742         0.009716   
    175. D(H  16,C   7,C   3,C   2)    159.5051         0.009716   
    176. D(C   8,C   7,C   3,C   4)     52.3267         0.009716   
    177. D(H  17,C   7,C   3,H  15)    -71.0600         0.009716   
    178. D(H  16,C   7,C   3,H  15)     45.8936         0.009716   
    179. D(C   8,C   7,C   3,C   2)    -79.7941         0.009716   
    180. D(C  13,C   8,C   7,H  17)    -37.4187         0.012886   
    181. D(C  13,C   8,C   7,H  16)   -156.4421         0.012886   
    182. D(C   9,C   8,C   7,H  17)    139.6903         0.012886   
    183. D(C   9,C   8,C   7,C   3)    -99.2347         0.012886   
    184. D(C   9,C   8,C   7,H  16)     20.6669         0.012886   
    185. D(C  13,C   8,C   7,C   3)     83.6563         0.012886   
    186. D(H  18,C   9,C   8,C  13)   -178.8820         0.026609   
    187. D(H  18,C   9,C   8,C   7)      3.9303         0.026609   
    188. D(C  10,C   9,C   8,C   7)   -174.8073         0.026609   
    189. D(C  10,C   9,C   8,C  13)      2.3804         0.026609   
    190. D(H  19,C  10,C   9,H  18)     -0.2150         0.028588   
    191. D(H  19,C  10,C   9,C   8)    178.5147         0.028588   
    192. D(C  11,C  10,C   9,H  18)   -179.0497         0.028588   
    193. D(C  11,C  10,C   9,C   8)     -0.3201         0.028588   
    194. D(H  20,C  11,C  10,H  19)     -1.0495         0.030538   
    195. D(H  20,C  11,C  10,C   9)    177.7853         0.030538   
    196. D(C  12,C  11,C  10,H  19)    179.6817         0.030538   
    197. D(C  12,C  11,C  10,C   9)     -1.4834         0.030538   
    198. D(H  21,C  12,C  11,H  20)     -1.3719         0.030596   
    199. D(H  21,C  12,C  11,C  10)    177.8962         0.030596   
    200. D(C  13,C  12,C  11,H  20)   -178.0796         0.030596   
    201. D(C  13,C  12,C  11,C  10)      1.1885         0.030596   
    202. D(H  22,C  13,C  12,H  21)     -1.6551         0.027376   
    203. D(H  22,C  13,C  12,C  11)    175.0322         0.027376   
    204. D(C   8,C  13,C  12,H  21)   -175.7784         0.027376   
    205. D(C   8,C  13,C  12,C  11)      0.9089         0.027376   
    206. D(H  22,C  13,C   8,C   7)      0.3158         0.026052   
    207. D(C  12,C  13,C   8,C   7)    174.4835         0.026052   
    208. D(C  12,C  13,C   8,C   9)     -2.6639         0.026052   
    209. D(H  22,C  13,C   8,C   9)   -176.8316         0.026052   
    210. D(C  24,N  23,Pt  0,O   5)    172.6780         0.001673   
    211. D(C  24,N  23,Pt  0,O   1)     47.2964         0.001673   
    212. D(C  37,N  23,Pt  0,N  29)    101.1661         0.001673   
    213. D(C  37,N  23,Pt  0,O   5)     53.4851         0.001673   
    214. D(C  37,N  23,Pt  0,O   1)    -71.8966         0.001673   
    215. D(C  25,N  23,Pt  0,N  29)    -17.6173         0.001673   
    216. D(C  25,N  23,Pt  0,O   5)    -65.2983         0.001673   
    217. D(C  25,N  23,Pt  0,O   1)    169.3201         0.001673   
    218. D(C  24,N  23,Pt  0,N  29)   -139.6410         0.001673   
    219. D(H  43,C  24,N  23,C  37)     62.1066         0.016737   
    220. D(H  43,C  24,N  23,C  25)   -175.4051         0.016737   
    221. D(H  42,C  24,N  23,Pt  0)     62.8548         0.016737   
    222. D(H  42,C  24,N  23,C  37)   -179.1302         0.016737   
    223. D(H  42,C  24,N  23,C  25)    -56.6419         0.016737   
    224. D(H  41,C  24,N  23,Pt  0)   -176.2183         0.016737   
    225. D(H  41,C  24,N  23,C  37)    -58.2033         0.016737   
    226. D(H  43,C  24,N  23,Pt  0)    -55.9084         0.016737   
    227. D(H  41,C  24,N  23,C  25)     64.2850         0.016737   
    228. D(H  36,C  25,N  23,Pt  0)    162.8028         0.015714   
    229. D(H  36,C  25,N  23,C  24)    -72.3761         0.015714   
    230. D(H  35,C  25,N  23,Pt  0)    -78.9992         0.015714   
    231. D(H  35,C  25,N  23,C  37)    166.1240         0.015714   
    232. D(H  35,C  25,N  23,C  24)     45.8219         0.015714   
    233. D(C  26,C  25,N  23,Pt  0)     40.5876         0.015714   
    234. D(H  36,C  25,N  23,C  37)     47.9259         0.015714   
    235. D(C  26,C  25,N  23,C  37)    -74.2893         0.015714   
    236. D(C  26,C  25,N  23,C  24)    165.4086         0.015714   
    237. D(N  29,C  26,C  25,H  36)   -173.8522         0.011077   
    238. D(N  29,C  26,C  25,H  35)     67.5639         0.011077   
    239. D(N  29,C  26,C  25,N  23)    -51.1615         0.011077   
    240. D(H  28,C  26,C  25,H  36)    -54.0241         0.011077   
    241. D(H  28,C  26,C  25,H  35)   -172.6080         0.011077   
    242. D(H  28,C  26,C  25,N  23)     68.6666         0.011077   
    243. D(H  27,C  26,C  25,H  36)     63.7384         0.011077   
    244. D(H  27,C  26,C  25,H  35)    -54.8456         0.011077   
    245. D(H  27,C  26,C  25,N  23)   -173.5709         0.011077   
    246. D(Pt  0,N  29,C  26,H  28)    -87.3593         0.015268   
    247. D(Pt  0,N  29,C  26,H  27)    154.8125         0.015268   
    248. D(Pt  0,N  29,C  26,C  25)     32.8985         0.015268   
    249. D(C  34,N  29,C  26,H  28)     31.2772         0.015268   
    250. D(C  34,N  29,C  26,C  25)    151.5351         0.015268   
    251. D(C  30,N  29,C  26,H  28)    151.8423         0.015268   
    252. D(C  30,N  29,C  26,H  27)     34.0142         0.015268   
    253. D(C  30,N  29,C  26,C  25)    -87.8998         0.015268   
    254. D(C  34,N  29,Pt  0,N  23)   -128.1374         0.001655   
    255. D(C  34,N  29,Pt  0,O   5)     46.8299         0.001655   
    256. D(C  34,N  29,Pt  0,O   1)    -73.5708         0.001655   
    257. D(C  30,N  29,Pt  0,N  23)    112.3732         0.001655   
    258. D(C  34,N  29,C  26,H  27)    -86.5509         0.015268   
    259. D(C  30,N  29,Pt  0,O   5)    -72.6594         0.001655   
    260. D(C  30,N  29,Pt  0,O   1)    166.9398         0.001655   
    261. D(C  26,N  29,Pt  0,N  23)     -8.5871         0.001655   
    262. D(C  26,N  29,Pt  0,O   5)    166.3802         0.001655   
    263. D(C  26,N  29,Pt  0,O   1)     45.9794         0.001655   
    264. D(H  33,C  30,N  29,Pt  0)    -61.8649         0.016859   
    265. D(H  33,C  30,N  29,C  26)     56.7425         0.016859   
    266. D(H  32,C  30,N  29,Pt  0)     56.8392         0.016859   
    267. D(H  32,C  30,N  29,C  34)    -62.9053         0.016859   
    268. D(H  32,C  30,N  29,C  26)    175.4466         0.016859   
    269. D(H  31,C  30,N  29,Pt  0)    176.9747         0.016859   
    270. D(H  33,C  30,N  29,C  34)    178.3906         0.016859   
    271. D(H  31,C  30,N  29,C  34)     57.2302         0.016859   
    272. D(H  31,C  30,N  29,C  26)    -64.4179         0.016859   
    273. D(H  44,C  34,N  29,Pt  0)     57.9579         0.016406   
    274. D(H  44,C  34,N  29,C  30)    178.6856         0.016406   
    275. D(H  44,C  34,N  29,C  26)    -59.4055         0.016406   
    276. D(H  46,C  34,N  29,Pt  0)    179.1750         0.016406   
    277. D(H  46,C  34,N  29,C  30)    -60.0972         0.016406   
    278. D(H  46,C  34,N  29,C  26)     61.8117         0.016406   
    279. D(H  45,C  34,N  29,Pt  0)    -60.2281         0.016406   
    280. D(H  45,C  34,N  29,C  30)     60.4996         0.016406   
    281. D(H  45,C  34,N  29,C  26)   -177.5915         0.016406   
    282. D(H  40,C  37,N  23,Pt  0)    -55.1238         0.016357   
    283. D(H  40,C  37,N  23,C  25)     59.6558         0.016357   
    284. D(H  40,C  37,N  23,C  24)   -178.6817         0.016357   
    285. D(H  39,C  37,N  23,Pt  0)   -176.4680         0.016357   
    286. D(H  39,C  37,N  23,C  25)    -61.6884         0.016357   
    287. D(H  39,C  37,N  23,C  24)     59.9741         0.016357   
    288. D(H  38,C  37,N  23,Pt  0)     63.7412         0.016357   
    289. D(H  38,C  37,N  23,C  25)    178.5208         0.016357   
    290. D(H  38,C  37,N  23,C  24)    -59.8167         0.016357   
    -----------------------------------------------------------------

Number of atoms                         .... 47
Number of degrees of freedom            .... 290

         *************************************************************
         *                GEOMETRY OPTIMIZATION CYCLE   1            *
         *************************************************************
      -----------------------------------------------------------      
     |                   =====================                   |     
     |                           x T B                           |     
     |                   =====================                   |     
     |                         S. Grimme                         |     
     |          Mulliken Center for Theoretical Chemistry        |     
     |                    University of Bonn                     |     
      -----------------------------------------------------------      

   * xtb version 6.2.2 (655bc02) compiled by 'ehlert@majestix' on 2019-12-09

   This program is distributed in the hope that it will be useful,
   but WITHOUT ANY WARRANTY; without even the implied warranty of
   MERCHANTABILITY or FITNESS FOR A PARTICULAR PURPOSE.
   
   FOR NON-COMMERCIAL, ACADEMIA USE ONLY.
   
   Cite this work as:
   * S. Grimme, C. Bannwarth, P. Shushkov, J. Chem. Theory Comput., 2017,
     13, 1989-2009. DOI: 10.1021/acs.jctc.7b00118
   * C. Bannwarth, S. Ehlert and S. Grimme., J. Chem. Theory Comput., 2019,
     15, 1652-1671. DOI: 10.1021/acs.jctc.8b01176
   * P. Pracht, E. Caldeweyher, S. Ehlert, S. Grimme, ChemRxiv, 2019, preprint.
     DOI: 10.26434/chemrxiv.8326202.v1
   
   for DFT-D4:
   * E. Caldeweyher, C. Bannwarth and S. Grimme, J. Chem. Phys., 2017,
     147, 034112. DOI: 10.1063/1.4993215
   * E. Caldeweyher, S. Ehlert, A. Hansen, H. Neugebauer, S. Spicher,
     C. Bannwarth and S. Grimme, J. Chem. Phys., 2019, 150, 154122.
     DOI: 10.1063/1.5090222
   
   for sTDA-xTB:
   * S. Grimme and C. Bannwarth, J. Chem. Phys., 2016, 145, 054103.
     DOI: 10.1063/1.4959605
   
   in the mass-spec context:
   * V. Asgeirsson, C. Bauer and S. Grimme, Chem. Sci., 2017, 8, 4879.
     DOI: 10.1039/c7sc00601b
   
   for metadynamics refer to:
   * S. Grimme, J. Chem. Theory Comput., 2019, 155, 2847-2862
     DOI: 10.1021/acs.jctc.9b00143
   
   with help from (in alphabetical order)
   C. Bannwarth, F. Bohle, G. Brandenburg, E. Caldeweyher, M. Checinski,
   S. Dohm, S. Ehlert, S. Ehrlich, F. März, H. Neugebauer, J. Pisarek,
   P. Pracht, P. Shushkov, and S. Spicher.
   
 * started run on 2021/06/22 at 21:09:58.127     

           -------------------------------------------------
          |                Calculation Setup                |
           -------------------------------------------------

          program call               : /home/mpol/opt/orca_4_2_1_linux_x86-64_openmpi314/otool_xtb opt_XTB.xyz --grad -c 0 -u 0 -P 8 --namespace opt
          calculation namespace      : opt
          coordinate file            : opt_XTB.xyz
          omp threads                :                     8
          number of atoms            :                    47
          number of electrons        :                   132
          charge                     :                     0
          spin                       :                   0.0
          first test random number   :      0.65743863623696


########################################################################
# WARNING! Please study the warnings concerning your input carefully
#  - Process number higher than OMP_NUM_THREADS, I hope you know what you are doing.
########################################################################

           ------------------------------------------------- 
          |                 G F N 2 - x T B                 |
          | Geometry, Frequencies, Noncovalent interactions |
          |            JCTC 2019 parametrisation            |
           ------------------------------------------------- 
             k(s)              :                1.8500
             k(p)              :                2.2300
             k(d)              :                2.2300
             k(f)              :                2.0000
             kEN (H0ij)        :               -2.0000
             D4 a1             :                0.5200
             D4 a2             :                5.0000
             D4 s6             :                1.0000
             D4 s8             :                2.7000
             D4 s9             :                5.0000
             alphaj            :                2.0000

  Z AO/shell   Hii/eV     exponent
  1     Wed Apr 25 08:07:45 CEST 2018   EN: 2.200 GM2: 0.406  GM3: 0.0800  RAES: 1.40
     1s    -10.707211    1.230000
  6     Wed Apr 25 08:07:45 CEST 2018   EN: 2.550 GM2: 0.538  GM3: 0.1500  RAES: 3.00
     2s    -13.970922    2.096432
     2p    -10.063292    1.800000
  7     Wed Apr 25 08:07:45 CEST 2018   EN: 3.040 GM2: 0.461  GM3:-0.0640  RAES: 1.90
     2s    -16.686243    2.339881
     2p    -12.523956    2.014332
  8     Wed Apr 25 08:07:45 CEST 2018   EN: 3.440 GM2: 0.452  GM3:-0.0517  RAES: 1.80
     2s    -20.229985    2.439742
     2p    -15.503117    2.137023
 78     Wed Apr 25 16:43:14 CEST 2018   EN: 2.280 GM2: 0.354  GM3: 0.0600  RAES: 5.00
     5d    -12.047728    2.704492
     6s    -10.482306    2.329136
     6p     -3.778297    1.623286

           ------------------------------------------------- 
          |        Self-Consistent Charge Iterations        |
           ------------------------------------------------- 

          ...................................................
          :                      SETUP                      :
          :.................................................:
          :  # basis functions                 122          :
          :  # atomic orbitals                 121          :
          :  # shells                           71          :
          :  # electrons                       132          :
          :  max. iterations                   250          :
          :  Hamiltonian                  GFN2-xTB          :
          :  restarted?                      false          :
          :  GBSA solvation                  false          :
          :  PC potential                    false          :
          :  electronic temp.          300.0000000     K    :
          :  accuracy                    1.0000000          :
          :  -> integral cutoff          0.2500000E+02      :
          :  -> integral neglect         0.1000000E-07      :
          :  -> SCF convergence          0.1000000E-05 Eh   :
          :  -> wf. convergence          0.1000000E-03 e    :
          :  Broyden damping             0.4000000          :
          ...................................................

 iter      E             dE          RMSdq      gap      omega  full diag
   1    -73.7362604 -0.737363E+02  0.533E+00    3.37       0.0  T
   2    -74.0702800 -0.334020E+00  0.323E+00    2.61       1.0  T
   3    -74.0854437 -0.151637E-01  0.147E+00    2.78       1.0  T
   4    -74.0866291 -0.118544E-02  0.475E-01    2.67       1.0  T
   5    -74.0873606 -0.731453E-03  0.257E-01    2.71       1.0  T
   6    -74.0882472 -0.886612E-03  0.978E-02    2.70       1.0  T
   7    -74.0883718 -0.124558E-03  0.530E-02    2.70       1.0  T
   8    -74.0883902 -0.184827E-04  0.271E-02    2.71       1.0  T
   9    -74.0883945 -0.424589E-05  0.105E-02    2.71       1.4  T
  10    -74.0883947 -0.172195E-06  0.487E-03    2.71       3.0  T
  11    -74.0883950 -0.297397E-06  0.182E-03    2.71       8.0  T
  12    -74.0883950 -0.116259E-07  0.675E-04    2.71      21.6  T
  13    -74.0883950 -0.463434E-08  0.204E-04    2.71      71.4  T

   *** convergence criteria satisfied after 13 iterations ***

         #    Occupation            Energy/Eh            Energy/eV
      -------------------------------------------------------------
         1        2.0000           -0.7155242             -19.4704
       ...           ...                  ...                  ...
        60        2.0000           -0.3906881             -10.6312
        61        2.0000           -0.3767615             -10.2522
        62        2.0000           -0.3613427              -9.8326
        63        2.0000           -0.3580382              -9.7427
        64        2.0000           -0.3578627              -9.7379
        65        2.0000           -0.3559147              -9.6849
        66        2.0000           -0.3442946              -9.3687 (HOMO)
        67                         -0.2446446              -6.6571 (LUMO)
        68                         -0.2252682              -6.1299
        69                         -0.2247087              -6.1146
        70                         -0.1726289              -4.6975
        71                         -0.1659251              -4.5151
       ...                                ...                  ...
       121                          1.2166545              33.1069
      -------------------------------------------------------------
                  HL-Gap            0.0996500 Eh            2.7116 eV
             Fermi-level           -0.2944696 Eh           -8.0129 eV

 SCC (total)                   0 d,  0 h,  0 min,  0.030 sec
 SCC setup                      ...        0 min,  0.000 sec (  0.951%)
 Dispersion                     ...        0 min,  0.000 sec (  1.440%)
 integral evaluation            ...        0 min,  0.007 sec ( 24.846%)
 zeroth order Hamiltonian       ...        0 min,  0.000 sec (  1.073%)
 iterations                     ...        0 min,  0.016 sec ( 54.538%)
 molecular gradient             ...        0 min,  0.004 sec ( 15.091%)
 printout                       ...        0 min,  0.000 sec (  1.652%)

         :::::::::::::::::::::::::::::::::::::::::::::::::::::
         ::                     SUMMARY                     ::
         :::::::::::::::::::::::::::::::::::::::::::::::::::::
         :: total energy             -73.240165591056 Eh    ::
         :: gradient norm              0.000048939551 Eh/a0 ::
         :: HOMO-LUMO gap              2.711614045073 eV    ::
         ::.................................................::
         :: SCC energy               -74.088394972795 Eh    ::
         :: -> isotropic ES            0.149329875614 Eh    ::
         :: -> anisotropic ES         -0.002553650182 Eh    ::
         :: -> anisotropic XC          0.029233875363 Eh    ::
         :: -> dispersion             -0.062180095020 Eh    ::
         :: repulsion energy           0.845787350489 Eh    ::
         :: add. restraining           0.000000000000 Eh    ::
         :::::::::::::::::::::::::::::::::::::::::::::::::::::

           -------------------------------------------------
          |                Property Printout                |
           -------------------------------------------------

    * Orbital Energies and Occupations

         #    Occupation            Energy/Eh            Energy/eV
      -------------------------------------------------------------
         1        2.0000           -0.7155242             -19.4704
       ...           ...                  ...                  ...
        54        2.0000           -0.4196627             -11.4196
        55        2.0000           -0.4127615             -11.2318
        56        2.0000           -0.4076998             -11.0941
        57        2.0000           -0.4051790             -11.0255
        58        2.0000           -0.3986045             -10.8466
        59        2.0000           -0.3975709             -10.8185
        60        2.0000           -0.3906881             -10.6312
        61        2.0000           -0.3767615             -10.2522
        62        2.0000           -0.3613427              -9.8326
        63        2.0000           -0.3580382              -9.7427
        64        2.0000           -0.3578627              -9.7379
        65        2.0000           -0.3559147              -9.6849
        66        2.0000           -0.3442946              -9.3687 (HOMO)
        67                         -0.2446446              -6.6571 (LUMO)
        68                         -0.2252682              -6.1299
        69                         -0.2247087              -6.1146
        70                         -0.1726289              -4.6975
        71                         -0.1659251              -4.5151
        72                         -0.0966629              -2.6303
        73                         -0.0641663              -1.7461
        74                         -0.0311807              -0.8485
        75                          0.0105841               0.2880
        76                          0.0273164               0.7433
        77                          0.0325186               0.8849
       ...                                ...                  ...
       121                          1.2166545              33.1069
      -------------------------------------------------------------
                  HL-Gap            0.0996500 Eh            2.7116 eV
             Fermi-level           -0.2944696 Eh           -8.0129 eV

     #   Z        covCN         q      C6AA      α(0)
     1  78 Pt     3.443    -0.026   346.452    35.072
     2   8 O      1.618    -0.365    20.194     6.065
     3   6 C      2.712     0.369    20.747     7.456
     4   6 C      3.848    -0.081    22.004     6.672
     5   6 C      2.711     0.370    20.722     7.451
     6   8 O      1.617    -0.370    20.305     6.082
     7   8 O      0.857    -0.461    22.944     6.422
     8   6 C      3.811    -0.052    21.500     6.600
     9   6 C      2.967     0.034    27.229     8.559
    10   6 C      2.924    -0.028    28.706     8.786
    11   6 C      2.918    -0.032    28.800     8.800
    12   6 C      2.918    -0.040    28.995     8.830
    13   6 C      2.918    -0.031    28.783     8.798
    14   6 C      2.929    -0.022    28.558     8.764
    15   8 O      0.857    -0.462    22.961     6.424
    16   1 H      0.924     0.065     2.146     2.291
    17   1 H      0.924     0.051     2.308     2.376
    18   1 H      0.924     0.051     2.305     2.374
    19   1 H      0.926     0.045     2.383     2.414
    20   1 H      0.926     0.029     2.595     2.519
    21   1 H      0.925     0.020     2.732     2.585
    22   1 H      0.925     0.017     2.779     2.607
    23   1 H      0.926     0.056     2.241     2.341
    24   7 N      3.543    -0.001    21.282     6.852
    25   6 C      3.733    -0.068    21.892     6.678
    26   6 C      3.813    -0.012    20.784     6.489
    27   6 C      3.798    -0.014    20.829     6.498
    28   1 H      0.924     0.053     2.277     2.360
    29   1 H      0.924     0.068     2.105     2.269
    30   7 N      3.536    -0.006    21.371     6.866
    31   6 C      3.740    -0.063    21.798     6.662
    32   1 H      0.924     0.046     2.370     2.407
    33   1 H      0.925     0.101     1.780     2.087
    34   1 H      0.925     0.073     2.055     2.242
    35   6 C      3.747    -0.064    21.798     6.659
    36   1 H      0.924     0.072     2.067     2.248
    37   1 H      0.923     0.051     2.307     2.375
    38   6 C      3.772    -0.063    21.739     6.644
    39   1 H      0.925     0.107     1.719     2.050
    40   1 H      0.924     0.046     2.375     2.410
    41   1 H      0.925     0.075     2.034     2.230
    42   1 H      0.924     0.046     2.375     2.410
    43   1 H      0.925     0.076     2.023     2.224
    44   1 H      0.925     0.108     1.712     2.046
    45   1 H      0.925     0.075     2.035     2.231
    46   1 H      0.925     0.115     1.657     2.013
    47   1 H      0.924     0.043     2.404     2.425

 Mol. C6AA /au·bohr⁶  :      25494.787716
 Mol. C8AA /au·bohr⁸  :     735650.102686
 Mol. α(0) /au        :        249.664322


Wiberg/Mayer (AO) data.
largest (>0.10) Wiberg bond orders for each atom
          total WBO             WBO to atom ...
     1  Pt  3.180        O    2 0.722    O    6 0.713    N   24 0.512    N   30 0.504
     2  O   2.320        C    3 1.263    Pt   1 0.722    O   15 0.178
     3  C   3.931        O   15 1.659    O    2 1.263    C    4 0.918
     4  C   3.984        H   16 0.962    C    8 0.938    C    3 0.918    C    5 0.917
     5  C   3.931        O    7 1.661    O    6 1.264    C    4 0.917
     6  O   2.311        C    5 1.264    Pt   1 0.713    O    7 0.178
     7  O   1.971        C    5 1.661    O    6 0.178
     8  C   3.995        C    9 1.018    H   17 0.971    H   18 0.965    C    4 0.938
     9  C   3.987        C   10 1.396    C   14 1.376    C    8 1.018    C   12 0.109
    10  C   3.990        C   11 1.449    C    9 1.396    H   19 0.968    C   13 0.110
    11  C   3.992        C   10 1.449    C   12 1.431    H   20 0.971    C   14 0.107
    12  C   3.992        C   13 1.433    C   11 1.431    H   21 0.971    C    9 0.109
    13  C   3.992        C   12 1.433    C   14 1.415    H   22 0.967    C   10 0.110
    14  C   3.992        C   13 1.415    C    9 1.376    H   23 0.956    C   11 0.107
    15  O   1.970        C    3 1.659    O    2 0.178
    16  H   0.995        C    4 0.962
    17  H   0.997        C    8 0.971
    18  H   0.997        C    8 0.965
    19  H   0.998        C   10 0.968
    20  H   0.999        C   11 0.971
    21  H   0.999        C   12 0.971
    22  H   0.999        C   13 0.967
    23  H   0.997        C   14 0.956
    24  N   3.565        C   25 0.980    C   38 0.978    C   26 0.972    Pt   1 0.512
    25  C   3.959        N   24 0.980    H   42 0.974    H   43 0.966    H   44 0.961
    26  C   3.979        C   27 0.995    N   24 0.972    H   37 0.964    H   36 0.959
    27  C   3.979        C   26 0.995    N   30 0.971    H   28 0.965    H   29 0.963
    28  H   0.996        C   27 0.965
    29  H   0.995        C   27 0.963
    30  N   3.559        C   31 0.982    C   35 0.979    C   27 0.971    Pt   1 0.504
    31  C   3.964        N   30 0.982    H   32 0.972    H   34 0.964    H   33 0.961
    32  H   0.996        C   31 0.972
    33  H   0.990        C   31 0.961
    34  H   0.995        C   31 0.964
    35  C   3.957        N   30 0.979    H   47 0.975    H   45 0.967    H   46 0.958
    36  H   0.995        C   26 0.959
    37  H   0.996        C   26 0.964
    38  C   3.962        N   24 0.978    H   40 0.972    H   41 0.962    H   39 0.961
    39  H   0.988        C   38 0.961
    40  H   0.996        C   38 0.972
    41  H   0.994        C   38 0.962
    42  H   0.996        C   25 0.974
    43  H   0.994        C   25 0.966
    44  H   0.988        C   25 0.961
    45  H   0.994        C   35 0.967
    46  H   0.986        C   35 0.958
    47  H   0.996        C   35 0.975

molecular dipole:
                 x           y           z       tot (Debye)
 q only:        3.225      -4.476      -2.477
   full:        3.577      -4.756      -2.611      16.517
molecular quadrupole (traceless):
                xx          xy          yy          xz          yz          zz
 q only:       18.257       6.004     -16.206      13.093     -15.709      -2.051
  q+dip:       17.548       4.251     -15.994      13.610     -15.811      -1.554
   full:       19.528       4.870     -17.159      14.689     -15.329      -2.369


           -------------------------------------------------
          | TOTAL ENERGY              -73.240165591056 Eh   |
          | GRADIENT NORM               0.000048939551 Eh/α |
          | HOMO-LUMO GAP               2.711614045073 eV   |
           -------------------------------------------------

------------------------------------------------------------------------
 * finished run on 2021/06/22 at 21:09:58.222     
------------------------------------------------------------------------
 total:
 * wall-time:     0 d,  0 h,  0 min,  0.095 sec
 *  cpu-time:     0 d,  0 h,  0 min,  0.684 sec
 * ratio c/w:     7.207 speedup
 SCF:
 * wall-time:     0 d,  0 h,  0 min,  0.030 sec
 *  cpu-time:     0 d,  0 h,  0 min,  0.219 sec
 * ratio c/w:     7.290 speedup


-------------------------   --------------------
FINAL SINGLE POINT ENERGY       -73.240165591060
-------------------------   --------------------

------------------------------------------------------------------------------
                         ORCA GEOMETRY RELAXATION STEP
------------------------------------------------------------------------------

Reading the OPT-File                    .... done
Getting information on internals        .... done
Copying old internal coords+grads       .... done
Making the new internal coordinates     .... (new redundants).... done
Validating the new internal coordinates .... (new redundants).... done
Calculating the B-matrix                .... done
Calculating the G,G- and P matrices     .... done
Transforming gradient to internals      .... done
Projecting the internal gradient        .... done
Number of atoms                         ....  47
Number of internal coordinates          .... 290
Current Energy                          ....   -73.240165591 Eh
Current gradient norm                   ....     0.000048940 Eh/bohr
Maximum allowed component of the step   ....  0.300
Current trust radius                    ....  0.300
Evaluating the initial hessian          ....  (Almloef) done
Projecting the Hessian                  .... done
Forming the augmented Hessian           .... done
Diagonalizing the augmented Hessian     .... done
Last element of RFO vector              ....  0.999991257
Lowest eigenvalues of augmented Hessian:
 -0.000000036  0.000977351  0.001769249  0.002505957  0.002683388
Length of the computed step             ....  0.004181608
The final length of the internal step   ....  0.004181608
Converting the step to cartesian space:
 Initial RMS(Int)=    0.0002455525
Transforming coordinates:
 Iter   0:  RMS(Cart)=    0.0004505325 RMS(Int)=    0.0002455772
 Iter   1:  RMS(Cart)=    0.0000001048 RMS(Int)=    0.0000000382
 Iter   2:  RMS(Cart)=    0.0000000000 RMS(Int)=    0.0000000000
done
Storing new coordinates                 .... done

                                .--------------------.
          ----------------------|Geometry convergence|-------------------------
          Item                value                   Tolerance       Converged
          ---------------------------------------------------------------------
          RMS gradient        0.0000023619            0.0000300000      YES
          MAX gradient        0.0000104121            0.0001000000      YES
          RMS step            0.0002455525            0.0006000000      YES
          MAX step            0.0024973776            0.0010000000      NO
          ........................................................
          Max(Bonds)      0.0013      Max(Angles)    0.01
          Max(Dihed)        0.02      Max(Improp)    0.00
          ---------------------------------------------------------------------

       The gradient convergence is overachieved with 
       reasonable convergence on the displacements
       Convergence will therefore be signaled now


                    ***********************HURRAY********************
                    ***        THE OPTIMIZATION HAS CONVERGED     ***
                    *************************************************


    ---------------------------------------------------------------------------
                         Redundant Internal Coordinates

                          --- Optimized Parameters ---  
                            (Angstroem and degrees)

        Definition                    OldVal   dE/dq     Step     FinalVal
    ----------------------------------------------------------------------------
     1. B(O   1,Pt  0)                2.0097  0.000001  0.0000    2.0097   
     2. B(C   2,O   1)                1.2888 -0.000008  0.0000    1.2888   
     3. B(C   3,C   2)                1.5383  0.000003  0.0000    1.5383   
     4. B(C   4,C   3)                1.5389 -0.000002 -0.0000    1.5389   
     5. B(O   5,C   4)                1.2888  0.000005 -0.0000    1.2888   
     6. B(O   5,Pt  0)                2.0123 -0.000000  0.0000    2.0123   
     7. B(O   6,C   4)                1.2171  0.000001 -0.0000    1.2171   
     8. B(C   7,C   3)                1.5501  0.000003 -0.0000    1.5501   
     9. B(C   8,C   7)                1.4998 -0.000000 -0.0000    1.4998   
    10. B(C   9,C   8)                1.3921 -0.000004  0.0000    1.3921   
    11. B(C  10,C   9)                1.3829 -0.000002  0.0000    1.3829   
    12. B(C  11,C  10)                1.3851  0.000006 -0.0000    1.3851   
    13. B(C  12,C  11)                1.3849  0.000001 -0.0000    1.3849   
    14. B(C  13,C  12)                1.3884  0.000002 -0.0000    1.3884   
    15. B(C  13,C   8)                1.3948 -0.000002 -0.0000    1.3948   
    16. B(O  14,C   2)                1.2176  0.000000 -0.0000    1.2176   
    17. B(H  15,C   3)                1.0956 -0.000001  0.0000    1.0956   
    18. B(H  16,C   7)                1.0921 -0.000001  0.0000    1.0921   
    19. B(H  17,C   7)                1.0933 -0.000000  0.0000    1.0933   
    20. B(H  18,C   9)                1.0802  0.000000 -0.0000    1.0802   
    21. B(H  19,C  10)                1.0805 -0.000000  0.0000    1.0805   
    22. B(H  20,C  11)                1.0814  0.000001 -0.0000    1.0814   
    23. B(H  21,C  12)                1.0825  0.000002 -0.0000    1.0825   
    24. B(H  22,C  13)                1.0809 -0.000001  0.0000    1.0809   
    25. B(N  23,Pt  0)                2.0804 -0.000004  0.0001    2.0804   
    26. B(C  24,N  23)                1.4630 -0.000005  0.0000    1.4630   
    27. B(C  25,N  23)                1.4715 -0.000000 -0.0000    1.4715   
    28. B(C  26,C  25)                1.5309  0.000004 -0.0000    1.5309   
    29. B(H  27,C  26)                1.0979  0.000001 -0.0000    1.0979   
    30. B(H  28,C  26)                1.0924 -0.000001  0.0000    1.0924   
    31. B(N  29,C  26)                1.4755 -0.000001  0.0000    1.4755   
    32. B(N  29,Pt  0)                2.0948 -0.000001 -0.0000    2.0948   
    33. B(C  30,N  29)                1.4620 -0.000010  0.0000    1.4620   
    34. B(H  31,C  30)                1.0970  0.000000 -0.0000    1.0970   
    35. B(H  32,C  30)                1.0890  0.000002 -0.0000    1.0890   
    36. B(H  33,H  20)                2.6768 -0.000003  0.0008    2.6776   
    37. B(H  33,C  11)                2.5763  0.000002  0.0007    2.5770   
    38. B(H  33,C  30)                1.0884  0.000001 -0.0000    1.0884   
    39. B(C  34,N  29)                1.4657 -0.000002  0.0000    1.4657   
    40. B(H  35,C  25)                1.0937  0.000005 -0.0000    1.0937   
    41. B(H  36,C  25)                1.0998 -0.000000  0.0000    1.0998   
    42. B(C  37,N  23)                1.4661 -0.000001  0.0000    1.4661   
    43. B(H  38,O   1)                2.6457  0.000000  0.0001    2.6458   
    44. B(H  38,C  37)                1.0897  0.000000  0.0000    1.0897   
    45. B(H  39,C  37)                1.0969 -0.000000  0.0000    1.0969   
    46. B(H  40,C  37)                1.0885 -0.000001  0.0000    1.0885   
    47. B(H  41,C  24)                1.0961  0.000001 -0.0000    1.0961   
    48. B(H  42,H  22)                2.6730 -0.000005  0.0013    2.6743   
    49. B(H  42,H  21)                2.2512 -0.000004  0.0013    2.2525   
    50. B(H  42,C  24)                1.0873 -0.000001 -0.0000    1.0873   
    51. B(H  43,O   1)                2.4360  0.000000  0.0001    2.4361   
    52. B(H  43,C  24)                1.0891 -0.000001  0.0000    1.0891   
    53. B(H  44,C  34)                1.0896  0.000001 -0.0000    1.0896   
    54. B(H  45,O   5)                2.3262  0.000000 -0.0001    2.3261   
    55. B(H  45,C  34)                1.0895  0.000000 -0.0000    1.0895   
    56. B(H  46,C  34)                1.0958  0.000001 -0.0000    1.0958   
    57. A(O   5,Pt  0,N  29)           89.78  0.000003   -0.00     89.78   
    58. A(N  23,Pt  0,N  29)           85.62  0.000002   -0.00     85.62   
    59. A(O   1,Pt  0,N  29)          171.48 -0.000000    0.00    171.48   
    60. A(O   1,Pt  0,N  23)           89.42 -0.000002    0.00     89.42   
    61. A(O   5,Pt  0,N  23)          173.19  0.000007   -0.01    173.18   
    62. A(O   1,Pt  0,O   5)           94.52 -0.000002    0.00     94.52   
    63. A(Pt  0,O   1,C   2)          125.65  0.000003    0.00    125.65   
    64. A(O   1,C   2,C   3)          120.77  0.000001    0.00    120.77   
    65. A(O   1,C   2,O  14)          121.03  0.000003   -0.00    121.02   
    66. A(C   3,C   2,O  14)          118.11 -0.000004    0.00    118.11   
    67. A(C   4,C   3,H  15)          106.49  0.000002   -0.00    106.49   
    68. A(C   7,C   3,H  15)          106.87 -0.000001   -0.00    106.87   
    69. A(C   4,C   3,C   7)          108.07 -0.000003    0.00    108.07   
    70. A(C   2,C   3,C   7)          108.87  0.000003    0.00    108.87   
    71. A(C   2,C   3,C   4)          120.20 -0.000001    0.00    120.20   
    72. A(C   2,C   3,H  15)          105.60  0.000000   -0.00    105.59   
    73. A(O   5,C   4,O   6)          121.32  0.000004   -0.00    121.32   
    74. A(C   3,C   4,O   5)          120.18 -0.000002    0.00    120.18   
    75. A(C   3,C   4,O   6)          118.38 -0.000002    0.00    118.38   
    76. A(Pt  0,O   5,C   4)          125.80  0.000002    0.00    125.80   
    77. A(C   3,C   7,C   8)          113.63 -0.000005    0.00    113.63   
    78. A(H  16,C   7,H  17)          108.60 -0.000000   -0.00    108.60   
    79. A(C   3,C   7,H  17)          107.83  0.000000    0.00    107.83   
    80. A(C   8,C   7,H  16)          108.97 -0.000000   -0.00    108.97   
    81. A(C   3,C   7,H  16)          107.56  0.000002   -0.00    107.55   
    82. A(C   8,C   7,H  17)          110.11  0.000003   -0.00    110.11   
    83. A(C   7,C   8,C   9)          119.98 -0.000000    0.00    119.98   
    84. A(C   9,C   8,C  13)          118.61  0.000003   -0.00    118.61   
    85. A(C   7,C   8,C  13)          121.35 -0.000002   -0.00    121.35   
    86. A(C   8,C   9,H  18)          119.22  0.000000   -0.00    119.22   
    87. A(C  10,C   9,H  18)          119.85 -0.000002    0.00    119.85   
    88. A(C   8,C   9,C  10)          120.92  0.000002   -0.00    120.92   
    89. A(C   9,C  10,C  11)          120.12 -0.000003    0.00    120.13   
    90. A(C  11,C  10,H  19)          119.93  0.000003   -0.00    119.93   
    91. A(C   9,C  10,H  19)          119.94  0.000000    0.00    119.94   
    92. A(C  10,C  11,C  12)          119.56 -0.000000   -0.00    119.56   
    93. A(C  12,C  11,H  20)          120.26 -0.000002    0.00    120.26   
    94. A(C  10,C  11,H  20)          120.17  0.000002   -0.00    120.17   
    95. A(C  11,C  12,H  21)          119.44 -0.000004    0.00    119.45   
    96. A(C  13,C  12,H  21)          120.06  0.000003   -0.00    120.06   
    97. A(C  11,C  12,C  13)          120.41  0.000000   -0.00    120.41   
    98. A(C  12,C  13,H  22)          120.10  0.000005   -0.00    120.10   
    99. A(C   8,C  13,C  12)          120.30 -0.000002    0.00    120.30   
   100. A(C   8,C  13,H  22)          119.34 -0.000003   -0.00    119.34   
   101. A(C  24,N  23,C  37)          108.06 -0.000000   -0.00    108.06   
   102. A(Pt  0,N  23,C  24)          114.83  0.000000    0.00    114.84   
   103. A(C  24,N  23,C  25)          110.40  0.000001    0.00    110.40   
   104. A(Pt  0,N  23,C  37)          105.96  0.000003   -0.00    105.96   
   105. A(Pt  0,N  23,C  25)          105.81 -0.000004    0.00    105.81   
   106. A(C  25,N  23,C  37)          111.75  0.000000   -0.00    111.75   
   107. A(H  42,C  24,H  43)          108.57  0.000001    0.00    108.57   
   108. A(H  41,C  24,H  43)          109.43 -0.000000   -0.00    109.43   
   109. A(N  23,C  24,H  43)          108.69  0.000003   -0.00    108.69   
   110. A(H  41,C  24,H  42)          109.21 -0.000002    0.00    109.21   
   111. A(N  23,C  24,H  42)          110.04 -0.000001    0.00    110.05   
   112. A(N  23,C  24,H  41)          110.86 -0.000000   -0.00    110.86   
   113. A(H  35,C  25,H  36)          108.19  0.000003   -0.00    108.19   
   114. A(C  26,C  25,H  36)          109.90  0.000000   -0.00    109.90   
   115. A(N  23,C  25,H  36)          110.71 -0.000003    0.00    110.71   
   116. A(C  26,C  25,H  35)          109.28 -0.000001    0.00    109.29   
   117. A(N  23,C  25,H  35)          107.85 -0.000003    0.00    107.86   
   118. A(N  23,C  25,C  26)          110.82  0.000004   -0.00    110.82   
   119. A(H  28,C  26,N  29)          108.72  0.000004   -0.00    108.72   
   120. A(H  27,C  26,N  29)          110.62  0.000000    0.00    110.62   
   121. A(H  27,C  26,H  28)          107.50 -0.000002   -0.00    107.50   
   122. A(C  25,C  26,H  28)          109.44  0.000002   -0.00    109.44   
   123. A(C  25,C  26,H  27)          109.77  0.000002    0.00    109.77   
   124. A(C  25,C  26,N  29)          110.72 -0.000006    0.00    110.72   
   125. A(C  30,N  29,C  34)          108.66  0.000003   -0.00    108.66   
   126. A(C  26,N  29,C  34)          110.49  0.000003   -0.00    110.49   
   127. A(C  26,N  29,C  30)          110.92 -0.000005    0.00    110.92   
   128. A(Pt  0,N  29,C  34)          109.08 -0.000003    0.00    109.08   
   129. A(Pt  0,N  29,C  30)          110.67  0.000001   -0.00    110.66   
   130. A(Pt  0,N  29,C  26)          107.00  0.000001    0.00    107.00   
   131. A(H  32,C  30,H  33)          108.21  0.000008   -0.00    108.21   
   132. A(H  31,C  30,H  33)          109.21  0.000002    0.00    109.21   
   133. A(N  29,C  30,H  33)          110.47 -0.000008    0.00    110.47   
   134. A(H  31,C  30,H  32)          109.21  0.000003   -0.00    109.21   
   135. A(N  29,C  30,H  32)          108.89 -0.000006    0.00    108.89   
   136. A(N  29,C  30,H  31)          110.80  0.000001    0.00    110.80   
   137. A(H  45,C  34,H  46)          109.57 -0.000002    0.00    109.57   
   138. A(H  44,C  34,H  46)          109.29 -0.000002    0.00    109.29   
   139. A(N  29,C  34,H  46)          110.95  0.000003   -0.00    110.95   
   140. A(H  44,C  34,H  45)          107.95 -0.000000   -0.00    107.95   
   141. A(N  29,C  34,H  45)          108.78  0.000001   -0.00    108.78   
   142. A(N  29,C  34,H  44)          110.25  0.000000   -0.00    110.25   
   143. A(H  39,C  37,H  40)          108.98  0.000001   -0.00    108.98   
   144. A(H  38,C  37,H  40)          108.20  0.000001   -0.00    108.20   
   145. A(N  23,C  37,H  40)          111.19 -0.000002    0.00    111.19   
   146. A(H  38,C  37,H  39)          109.16 -0.000001    0.00    109.16   
   147. A(N  23,C  37,H  39)          110.77 -0.000000    0.00    110.77   
   148. A(N  23,C  37,H  38)          108.48  0.000001   -0.00    108.48   
   149. D(C   2,O   1,Pt  0,N  29)    132.45  0.000001   -0.02    132.44   
   150. D(C   2,O   1,Pt  0,O   5)     12.36 -0.000001   -0.01     12.35   
   151. D(C   2,O   1,Pt  0,N  23)   -173.21  0.000005   -0.01   -173.22   
   152. D(O  14,C   2,O   1,Pt  0)   -174.34 -0.000000    0.00   -174.34   
   153. D(C   3,C   2,O   1,Pt  0)      9.25 -0.000001    0.00      9.26   
   154. D(C   4,C   3,C   2,O   1)    -39.09  0.000002    0.00    -39.09   
   155. D(H  15,C   3,C   2,O   1)   -159.32  0.000000    0.00   -159.32   
   156. D(C   4,C   3,C   2,O  14)    144.40  0.000001    0.00    144.40   
   157. D(C   7,C   3,C   2,O  14)    -90.28 -0.000001    0.01    -90.27   
   158. D(H  15,C   3,C   2,O  14)     24.17 -0.000001    0.01     24.17   
   159. D(C   7,C   3,C   2,O   1)     86.23  0.000000    0.01     86.24   
   160. D(O   6,C   4,C   3,C   2)   -142.82 -0.000002   -0.00   -142.82   
   161. D(O   5,C   4,C   3,H  15)    160.82 -0.000001   -0.01    160.82   
   162. D(O   5,C   4,C   3,C   2)     41.04 -0.000002   -0.00     41.03   
   163. D(O   6,C   4,C   3,C   7)     91.48 -0.000003   -0.00     91.48   
   164. D(O   5,C   4,C   3,C   7)    -84.66 -0.000003   -0.01    -84.67   
   165. D(O   6,C   4,C   3,H  15)    -23.04 -0.000001   -0.00    -23.04   
   166. D(Pt  0,O   5,C   4,O   6)    171.04 -0.000002   -0.00    171.04   
   167. D(Pt  0,O   5,C   4,C   3)    -12.93 -0.000002   -0.00    -12.93   
   168. D(C   4,O   5,Pt  0,N  29)    176.98  0.000003    0.00    176.98   
   169. D(C   4,O   5,Pt  0,N  23)   -135.52  0.000004    0.00   -135.52   
   170. D(C   4,O   5,Pt  0,O   1)    -10.39  0.000003    0.01    -10.39   
   171. D(H  17,C   7,C   3,C   2)     42.55  0.000000    0.00     42.55   
   172. D(H  17,C   7,C   3,C   4)    174.67 -0.000000    0.01    174.68   
   173. D(C   8,C   7,C   3,H  15)    166.59 -0.000001    0.00    166.60   
   174. D(H  16,C   7,C   3,C   4)    -68.37  0.000001    0.00    -68.37   
   175. D(H  16,C   7,C   3,C   2)    159.51  0.000002    0.00    159.51   
   176. D(C   8,C   7,C   3,C   4)     52.33 -0.000001    0.00     52.33   
   177. D(H  17,C   7,C   3,H  15)    -71.06 -0.000001    0.00    -71.06   
   178. D(H  16,C   7,C   3,H  15)     45.89  0.000000    0.00     45.90   
   179. D(C   8,C   7,C   3,C   2)    -79.79 -0.000000    0.00    -79.79   
   180. D(C  13,C   8,C   7,H  17)    -37.42  0.000003    0.00    -37.41   
   181. D(C  13,C   8,C   7,H  16)   -156.44  0.000002    0.01   -156.44   
   182. D(C   9,C   8,C   7,H  17)    139.69  0.000002    0.00    139.69   
   183. D(C   9,C   8,C   7,C   3)    -99.23  0.000001    0.01    -99.23   
   184. D(C   9,C   8,C   7,H  16)     20.67  0.000000    0.01     20.67   
   185. D(C  13,C   8,C   7,C   3)     83.66  0.000002    0.01     83.66   
   186. D(H  18,C   9,C   8,C  13)   -178.88 -0.000001    0.00   -178.88   
   187. D(H  18,C   9,C   8,C   7)      3.93  0.000001   -0.00      3.93   
   188. D(C  10,C   9,C   8,C   7)   -174.81  0.000001   -0.00   -174.81   
   189. D(C  10,C   9,C   8,C  13)      2.38 -0.000001    0.00      2.38   
   190. D(H  19,C  10,C   9,H  18)     -0.21 -0.000001    0.00     -0.21   
   191. D(H  19,C  10,C   9,C   8)    178.51 -0.000000    0.00    178.52   
   192. D(C  11,C  10,C   9,H  18)   -179.05  0.000001   -0.00   -179.05   
   193. D(C  11,C  10,C   9,C   8)     -0.32  0.000001   -0.00     -0.32   
   194. D(H  20,C  11,C  10,H  19)     -1.05 -0.000001    0.00     -1.05   
   195. D(H  20,C  11,C  10,C   9)    177.79 -0.000003    0.00    177.79   
   196. D(C  12,C  11,C  10,H  19)    179.68  0.000001    0.00    179.68   
   197. D(C  12,C  11,C  10,C   9)     -1.48 -0.000001    0.00     -1.48   
   198. D(H  21,C  12,C  11,H  20)     -1.37  0.000000    0.00     -1.37   
   199. D(H  21,C  12,C  11,C  10)    177.90 -0.000002    0.00    177.90   
   200. D(C  13,C  12,C  11,H  20)   -178.08  0.000003   -0.00   -178.08   
   201. D(C  13,C  12,C  11,C  10)      1.19  0.000001   -0.00      1.19   
   202. D(H  22,C  13,C  12,H  21)     -1.66 -0.000001   -0.00     -1.66   
   203. D(H  22,C  13,C  12,C  11)    175.03 -0.000003    0.00    175.03   
   204. D(C   8,C  13,C  12,H  21)   -175.78  0.000002   -0.00   -175.78   
   205. D(C   8,C  13,C  12,C  11)      0.91 -0.000000    0.00      0.91   
   206. D(H  22,C  13,C   8,C   7)      0.32  0.000001   -0.00      0.31   
   207. D(C  12,C  13,C   8,C   7)    174.48 -0.000001   -0.00    174.48   
   208. D(C  12,C  13,C   8,C   9)     -2.66  0.000000   -0.00     -2.66   
   209. D(H  22,C  13,C   8,C   9)   -176.83  0.000003   -0.00   -176.83   
   210. D(C  24,N  23,Pt  0,O   5)    172.68  0.000002   -0.00    172.67   
   211. D(C  24,N  23,Pt  0,O   1)     47.30  0.000003   -0.00     47.29   
   212. D(C  37,N  23,Pt  0,N  29)    101.17  0.000000    0.00    101.17   
   213. D(C  37,N  23,Pt  0,O   5)     53.49 -0.000000   -0.00     53.48   
   214. D(C  37,N  23,Pt  0,O   1)    -71.90  0.000001   -0.00    -71.90   
   215. D(C  25,N  23,Pt  0,N  29)    -17.62  0.000001    0.00    -17.62   
   216. D(C  25,N  23,Pt  0,O   5)    -65.30 -0.000000   -0.00    -65.30   
   217. D(C  25,N  23,Pt  0,O   1)    169.32  0.000001   -0.00    169.32   
   218. D(C  24,N  23,Pt  0,N  29)   -139.64  0.000002   -0.00   -139.64   
   219. D(H  43,C  24,N  23,C  37)     62.11 -0.000000    0.01     62.11   
   220. D(H  43,C  24,N  23,C  25)   -175.41  0.000000    0.01   -175.40   
   221. D(H  42,C  24,N  23,Pt  0)     62.85 -0.000002    0.01     62.86   
   222. D(H  42,C  24,N  23,C  37)   -179.13  0.000002    0.01   -179.12   
   223. D(H  42,C  24,N  23,C  25)    -56.64  0.000002    0.01    -56.64   
   224. D(H  41,C  24,N  23,Pt  0)   -176.22 -0.000005    0.01   -176.21   
   225. D(H  41,C  24,N  23,C  37)    -58.20 -0.000002    0.01    -58.20   
   226. D(H  43,C  24,N  23,Pt  0)    -55.91 -0.000004    0.01    -55.90   
   227. D(H  41,C  24,N  23,C  25)     64.28 -0.000001    0.01     64.29   
   228. D(H  36,C  25,N  23,Pt  0)    162.80  0.000003   -0.01    162.80   
   229. D(H  36,C  25,N  23,C  24)    -72.38  0.000002   -0.00    -72.38   
   230. D(H  35,C  25,N  23,Pt  0)    -79.00  0.000003   -0.01    -79.00   
   231. D(H  35,C  25,N  23,C  37)    166.12  0.000002   -0.00    166.12   
   232. D(H  35,C  25,N  23,C  24)     45.82  0.000001   -0.00     45.82   
   233. D(C  26,C  25,N  23,Pt  0)     40.59  0.000002   -0.00     40.58   
   234. D(H  36,C  25,N  23,C  37)     47.93  0.000002   -0.00     47.92   
   235. D(C  26,C  25,N  23,C  37)    -74.29  0.000001   -0.00    -74.29   
   236. D(C  26,C  25,N  23,C  24)    165.41  0.000001    0.00    165.41   
   237. D(N  29,C  26,C  25,H  36)   -173.85 -0.000002    0.01   -173.85   
   238. D(N  29,C  26,C  25,H  35)     67.56 -0.000004    0.01     67.57   
   239. D(N  29,C  26,C  25,N  23)    -51.16 -0.000003    0.01    -51.16   
   240. D(H  28,C  26,C  25,H  36)    -54.02  0.000001    0.00    -54.02   
   241. D(H  28,C  26,C  25,H  35)   -172.61 -0.000002    0.01   -172.60   
   242. D(H  28,C  26,C  25,N  23)     68.67 -0.000000    0.00     68.67   
   243. D(H  27,C  26,C  25,H  36)     63.74  0.000001    0.00     63.74   
   244. D(H  27,C  26,C  25,H  35)    -54.85 -0.000002    0.00    -54.84   
   245. D(H  27,C  26,C  25,N  23)   -173.57 -0.000000    0.00   -173.57   
   246. D(Pt  0,N  29,C  26,H  28)    -87.36 -0.000001   -0.00    -87.36   
   247. D(Pt  0,N  29,C  26,H  27)    154.81 -0.000001   -0.00    154.81   
   248. D(Pt  0,N  29,C  26,C  25)     32.90  0.000000   -0.00     32.90   
   249. D(C  34,N  29,C  26,H  28)     31.28 -0.000003    0.00     31.28   
   250. D(C  34,N  29,C  26,C  25)    151.54 -0.000001   -0.00    151.53   
   251. D(C  30,N  29,C  26,H  28)    151.84 -0.000001   -0.00    151.84   
   252. D(C  30,N  29,C  26,H  27)     34.01 -0.000001   -0.00     34.01   
   253. D(C  30,N  29,C  26,C  25)    -87.90  0.000001   -0.00    -87.90   
   254. D(C  34,N  29,Pt  0,N  23)   -128.14 -0.000004    0.00   -128.14   
   255. D(C  34,N  29,Pt  0,O   5)     46.83  0.000001   -0.00     46.83   
   256. D(C  34,N  29,Pt  0,O   1)    -73.57 -0.000001    0.01    -73.56   
   257. D(C  30,N  29,Pt  0,N  23)    112.37 -0.000006    0.00    112.38   
   258. D(C  34,N  29,C  26,H  27)    -86.55 -0.000003    0.00    -86.55   
   259. D(C  30,N  29,Pt  0,O   5)    -72.66 -0.000001   -0.00    -72.66   
   260. D(C  30,N  29,Pt  0,O   1)    166.94 -0.000003    0.01    166.95   
   261. D(C  26,N  29,Pt  0,N  23)     -8.59 -0.000002    0.00     -8.59   
   262. D(C  26,N  29,Pt  0,O   5)    166.38  0.000003   -0.00    166.38   
   263. D(C  26,N  29,Pt  0,O   1)     45.98  0.000002    0.01     45.99   
   264. D(H  33,C  30,N  29,Pt  0)    -61.86 -0.000003    0.01    -61.86   
   265. D(H  33,C  30,N  29,C  26)     56.74 -0.000003    0.01     56.75   
   266. D(H  32,C  30,N  29,Pt  0)     56.84 -0.000001    0.00     56.84   
   267. D(H  32,C  30,N  29,C  34)    -62.91  0.000000    0.00    -62.90   
   268. D(H  32,C  30,N  29,C  26)    175.45 -0.000002    0.01    175.45   
   269. D(H  31,C  30,N  29,Pt  0)    176.97 -0.000000    0.00    176.98   
   270. D(H  33,C  30,N  29,C  34)    178.39 -0.000001    0.01    178.40   
   271. D(H  31,C  30,N  29,C  34)     57.23  0.000001    0.00     57.23   
   272. D(H  31,C  30,N  29,C  26)    -64.42 -0.000001    0.01    -64.41   
   273. D(H  44,C  34,N  29,Pt  0)     57.96  0.000001    0.00     57.96   
   274. D(H  44,C  34,N  29,C  30)    178.69  0.000002   -0.00    178.68   
   275. D(H  44,C  34,N  29,C  26)    -59.41 -0.000001   -0.00    -59.41   
   276. D(H  46,C  34,N  29,Pt  0)    179.18 -0.000000    0.00    179.18   
   277. D(H  46,C  34,N  29,C  30)    -60.10  0.000001   -0.00    -60.10   
   278. D(H  46,C  34,N  29,C  26)     61.81 -0.000001   -0.00     61.81   
   279. D(H  45,C  34,N  29,Pt  0)    -60.23 -0.000000    0.00    -60.23   
   280. D(H  45,C  34,N  29,C  30)     60.50  0.000001   -0.00     60.50   
   281. D(H  45,C  34,N  29,C  26)   -177.59 -0.000001   -0.00   -177.59   
   282. D(H  40,C  37,N  23,Pt  0)    -55.12  0.000001    0.00    -55.12   
   283. D(H  40,C  37,N  23,C  25)     59.66 -0.000002    0.00     59.66   
   284. D(H  40,C  37,N  23,C  24)   -178.68 -0.000001    0.00   -178.68   
   285. D(H  39,C  37,N  23,Pt  0)   -176.47  0.000001    0.00   -176.47   
   286. D(H  39,C  37,N  23,C  25)    -61.69 -0.000002    0.00    -61.69   
   287. D(H  39,C  37,N  23,C  24)     59.97 -0.000001    0.00     59.98   
   288. D(H  38,C  37,N  23,Pt  0)     63.74  0.000002    0.00     63.74   
   289. D(H  38,C  37,N  23,C  25)    178.52 -0.000001    0.00    178.52   
   290. D(H  38,C  37,N  23,C  24)    -59.82 -0.000000    0.00    -59.82   
    ----------------------------------------------------------------------------
                 *******************************************************
                 *** FINAL ENERGY EVALUATION AT THE STATIONARY POINT ***
                 ***               (AFTER    1 CYCLES)               ***
                 *******************************************************
      -----------------------------------------------------------      
     |                   =====================                   |     
     |                           x T B                           |     
     |                   =====================                   |     
     |                         S. Grimme                         |     
     |          Mulliken Center for Theoretical Chemistry        |     
     |                    University of Bonn                     |     
      -----------------------------------------------------------      

   * xtb version 6.2.2 (655bc02) compiled by 'ehlert@majestix' on 2019-12-09

   This program is distributed in the hope that it will be useful,
   but WITHOUT ANY WARRANTY; without even the implied warranty of
   MERCHANTABILITY or FITNESS FOR A PARTICULAR PURPOSE.
   
   FOR NON-COMMERCIAL, ACADEMIA USE ONLY.
   
   Cite this work as:
   * S. Grimme, C. Bannwarth, P. Shushkov, J. Chem. Theory Comput., 2017,
     13, 1989-2009. DOI: 10.1021/acs.jctc.7b00118
   * C. Bannwarth, S. Ehlert and S. Grimme., J. Chem. Theory Comput., 2019,
     15, 1652-1671. DOI: 10.1021/acs.jctc.8b01176
   * P. Pracht, E. Caldeweyher, S. Ehlert, S. Grimme, ChemRxiv, 2019, preprint.
     DOI: 10.26434/chemrxiv.8326202.v1
   
   for DFT-D4:
   * E. Caldeweyher, C. Bannwarth and S. Grimme, J. Chem. Phys., 2017,
     147, 034112. DOI: 10.1063/1.4993215
   * E. Caldeweyher, S. Ehlert, A. Hansen, H. Neugebauer, S. Spicher,
     C. Bannwarth and S. Grimme, J. Chem. Phys., 2019, 150, 154122.
     DOI: 10.1063/1.5090222
   
   for sTDA-xTB:
   * S. Grimme and C. Bannwarth, J. Chem. Phys., 2016, 145, 054103.
     DOI: 10.1063/1.4959605
   
   in the mass-spec context:
   * V. Asgeirsson, C. Bauer and S. Grimme, Chem. Sci., 2017, 8, 4879.
     DOI: 10.1039/c7sc00601b
   
   for metadynamics refer to:
   * S. Grimme, J. Chem. Theory Comput., 2019, 155, 2847-2862
     DOI: 10.1021/acs.jctc.9b00143
   
   with help from (in alphabetical order)
   C. Bannwarth, F. Bohle, G. Brandenburg, E. Caldeweyher, M. Checinski,
   S. Dohm, S. Ehlert, S. Ehrlich, F. März, H. Neugebauer, J. Pisarek,
   P. Pracht, P. Shushkov, and S. Spicher.
   
 * started run on 2021/06/22 at 21:09:58.827     

           -------------------------------------------------
          |                Calculation Setup                |
           -------------------------------------------------

          program call               : /home/mpol/opt/orca_4_2_1_linux_x86-64_openmpi314/otool_xtb opt_XTB.xyz --grad -c 0 -u 0 -P 8 --namespace opt
          calculation namespace      : opt
          coordinate file            : opt_XTB.xyz
          omp threads                :                     8
          number of atoms            :                    47
          number of electrons        :                   132
          charge                     :                     0
          spin                       :                   0.0
          first test random number   :      0.66476312396343


########################################################################
# WARNING! Please study the warnings concerning your input carefully
#  - Process number higher than OMP_NUM_THREADS, I hope you know what you are doing.
########################################################################

           ------------------------------------------------- 
          |                 G F N 2 - x T B                 |
          | Geometry, Frequencies, Noncovalent interactions |
          |            JCTC 2019 parametrisation            |
           ------------------------------------------------- 
             k(s)              :                1.8500
             k(p)              :                2.2300
             k(d)              :                2.2300
             k(f)              :                2.0000
[...]
  18:       172.04    0.000000  (  0.000000   0.000000   0.000000)
  19:       182.42    0.000000  (  0.000000   0.000000   0.000000)
  20:       193.32    0.000000  (  0.000000   0.000000   0.000000)
  21:       203.70    0.000000  (  0.000000   0.000000   0.000000)
  22:       218.71    0.000000  (  0.000000   0.000000   0.000000)
  23:       223.47    0.000000  (  0.000000   0.000000   0.000000)
  24:       233.69    0.000000  (  0.000000   0.000000   0.000000)
  25:       257.55    0.000000  (  0.000000   0.000000   0.000000)
  26:       263.73    0.000000  (  0.000000   0.000000   0.000000)
  27:       279.57    0.000000  (  0.000000   0.000000   0.000000)
  28:       285.38    0.000000  (  0.000000   0.000000   0.000000)
  29:       290.78    0.000000  (  0.000000   0.000000   0.000000)
  30:       307.66    0.000000  (  0.000000   0.000000   0.000000)
  31:       314.96    0.000000  (  0.000000   0.000000   0.000000)
  32:       353.23    0.000000  (  0.000000   0.000000   0.000000)
  33:       372.54    0.000000  (  0.000000   0.000000   0.000000)
  34:       378.89    0.000000  (  0.000000   0.000000   0.000000)
  35:       407.00    0.000000  (  0.000000   0.000000   0.000000)
  36:       436.97    0.000000  (  0.000000   0.000000   0.000000)
  37:       438.49    0.000000  (  0.000000   0.000000   0.000000)
  38:       443.22    0.000000  (  0.000000   0.000000   0.000000)
  39:       448.60    0.000000  (  0.000000   0.000000   0.000000)
  40:       474.94    0.000000  (  0.000000   0.000000   0.000000)
  41:       479.33    0.000000  (  0.000000   0.000000   0.000000)
  42:       500.28    0.000000  (  0.000000   0.000000   0.000000)
  43:       546.52    0.000000  (  0.000000   0.000000   0.000000)
  44:       582.80    0.000000  (  0.000000   0.000000   0.000000)
  45:       591.10    0.000000  (  0.000000   0.000000   0.000000)
  46:       664.53    0.000000  (  0.000000   0.000000   0.000000)
  47:       679.33    0.000000  (  0.000000   0.000000   0.000000)
  48:       711.24    0.000000  (  0.000000   0.000000   0.000000)
  49:       734.65    0.000000  (  0.000000   0.000000   0.000000)
  50:       750.64    0.000000  (  0.000000   0.000000   0.000000)
  51:       776.87    0.000000  (  0.000000   0.000000   0.000000)
  52:       800.29    0.000000  (  0.000000   0.000000   0.000000)
  53:       812.06    0.000000  (  0.000000   0.000000   0.000000)
  54:       851.57    0.000000  (  0.000000   0.000000   0.000000)
  55:       878.87    0.000000  (  0.000000   0.000000   0.000000)
  56:       881.24    0.000000  (  0.000000   0.000000   0.000000)
  57:       899.57    0.000000  (  0.000000   0.000000   0.000000)
  58:       906.65    0.000000  (  0.000000   0.000000   0.000000)
  59:       930.32    0.000000  (  0.000000   0.000000   0.000000)
  60:       934.12    0.000000  (  0.000000   0.000000   0.000000)
  61:       969.00    0.000000  (  0.000000   0.000000   0.000000)
  62:       981.02    0.000000  (  0.000000   0.000000   0.000000)
  63:       982.12    0.000000  (  0.000000   0.000000   0.000000)
  64:      1001.59    0.000000  (  0.000000   0.000000   0.000000)
  65:      1017.80    0.000000  (  0.000000   0.000000   0.000000)
  66:      1024.73    0.000000  (  0.000000   0.000000   0.000000)
  67:      1028.46    0.000000  (  0.000000   0.000000   0.000000)
  68:      1029.58    0.000000  (  0.000000   0.000000   0.000000)
  69:      1037.55    0.000000  (  0.000000   0.000000   0.000000)
  70:      1070.94    0.000000  (  0.000000   0.000000   0.000000)
  71:      1077.42    0.000000  (  0.000000   0.000000   0.000000)
  72:      1085.41    0.000000  (  0.000000   0.000000   0.000000)
  73:      1085.60    0.000000  (  0.000000   0.000000   0.000000)
  74:      1113.53    0.000000  (  0.000000   0.000000   0.000000)
  75:      1119.17    0.000000  (  0.000000   0.000000   0.000000)
  76:      1155.81    0.000000  (  0.000000   0.000000   0.000000)
  77:      1158.41    0.000000  (  0.000000   0.000000   0.000000)
  78:      1183.63    0.000000  (  0.000000   0.000000   0.000000)
  79:      1185.35    0.000000  (  0.000000   0.000000   0.000000)
  80:      1194.91    0.000000  (  0.000000   0.000000   0.000000)
  81:      1201.75    0.000000  (  0.000000   0.000000   0.000000)
  82:      1203.55    0.000000  (  0.000000   0.000000   0.000000)
  83:      1231.24    0.000000  (  0.000000   0.000000   0.000000)
  84:      1236.52    0.000000  (  0.000000   0.000000   0.000000)
  85:      1240.07    0.000000  (  0.000000   0.000000   0.000000)
  86:      1252.78    0.000000  (  0.000000   0.000000   0.000000)
  87:      1255.89    0.000000  (  0.000000   0.000000   0.000000)
  88:      1264.14    0.000000  (  0.000000   0.000000   0.000000)
  89:      1290.52    0.000000  (  0.000000   0.000000   0.000000)
  90:      1293.06    0.000000  (  0.000000   0.000000   0.000000)
  91:      1311.84    0.000000  (  0.000000   0.000000   0.000000)
  92:      1326.46    0.000000  (  0.000000   0.000000   0.000000)
  93:      1330.23    0.000000  (  0.000000   0.000000   0.000000)
  94:      1340.66    0.000000  (  0.000000   0.000000   0.000000)
  95:      1345.93    0.000000  (  0.000000   0.000000   0.000000)
  96:      1401.13    0.000000  (  0.000000   0.000000   0.000000)
  97:      1405.24    0.000000  (  0.000000   0.000000   0.000000)
  98:      1420.09    0.000000  (  0.000000   0.000000   0.000000)
  99:      1423.98    0.000000  (  0.000000   0.000000   0.000000)
 100:      1437.50    0.000000  (  0.000000   0.000000   0.000000)
 101:      1450.07    0.000000  (  0.000000   0.000000   0.000000)
 102:      1451.86    0.000000  (  0.000000   0.000000   0.000000)
 103:      1462.73    0.000000  (  0.000000   0.000000   0.000000)
 104:      1464.40    0.000000  (  0.000000   0.000000   0.000000)
 105:      1464.76    0.000000  (  0.000000   0.000000   0.000000)
 106:      1467.01    0.000000  (  0.000000   0.000000   0.000000)
 107:      1470.48    0.000000  (  0.000000   0.000000   0.000000)
 108:      1473.05    0.000000  (  0.000000   0.000000   0.000000)
 109:      1475.94    0.000000  (  0.000000   0.000000   0.000000)
 110:      1476.50    0.000000  (  0.000000   0.000000   0.000000)
 111:      1482.55    0.000000  (  0.000000   0.000000   0.000000)
 112:      1489.27    0.000000  (  0.000000   0.000000   0.000000)
 113:      1584.05    0.000000  (  0.000000   0.000000   0.000000)
 114:      1596.96    0.000000  (  0.000000   0.000000   0.000000)
 115:      1689.36    0.000000  (  0.000000   0.000000   0.000000)
 116:      1700.84    0.000000  (  0.000000   0.000000   0.000000)
 117:      2883.64    0.000000  (  0.000000   0.000000   0.000000)
 118:      2906.51    0.000000  (  0.000000   0.000000   0.000000)
 119:      2918.01    0.000000  (  0.000000   0.000000   0.000000)
 120:      2919.65    0.000000  (  0.000000   0.000000   0.000000)
 121:      2930.40    0.000000  (  0.000000   0.000000   0.000000)
 122:      2932.35    0.000000  (  0.000000   0.000000   0.000000)
 123:      2948.22    0.000000  (  0.000000   0.000000   0.000000)
 124:      2958.62    0.000000  (  0.000000   0.000000   0.000000)
 125:      2962.40    0.000000  (  0.000000   0.000000   0.000000)
 126:      2976.37    0.000000  (  0.000000   0.000000   0.000000)
 127:      2977.97    0.000000  (  0.000000   0.000000   0.000000)
 128:      3012.24    0.000000  (  0.000000   0.000000   0.000000)
 129:      3017.85    0.000000  (  0.000000   0.000000   0.000000)
 130:      3021.83    0.000000  (  0.000000   0.000000   0.000000)
 131:      3024.11    0.000000  (  0.000000   0.000000   0.000000)
 132:      3026.62    0.000000  (  0.000000   0.000000   0.000000)
 133:      3027.90    0.000000  (  0.000000   0.000000   0.000000)
 134:      3030.05    0.000000  (  0.000000   0.000000   0.000000)
 135:      3041.18    0.000000  (  0.000000   0.000000   0.000000)
 136:      3045.16    0.000000  (  0.000000   0.000000   0.000000)
 137:      3062.22    0.000000  (  0.000000   0.000000   0.000000)
 138:      3074.92    0.000000  (  0.000000   0.000000   0.000000)
 139:      3076.79    0.000000  (  0.000000   0.000000   0.000000)
 140:      3089.84    0.000000  (  0.000000   0.000000   0.000000)

The first frequency considered to be a vibration is 6
The total number of vibrations considered is 135


--------------------------
THERMOCHEMISTRY AT 298.15K
--------------------------

Temperature         ... 298.15 K
Pressure            ... 1.00 atm
Total Mass          ... 503.47 AMU

Throughout the following assumptions are being made:
  (1) The electronic state is orbitally nondegenerate
  (2) There are no thermally accessible electronically excited states
  (3) Hindered rotations indicated by low frequency modes are not
      treated as such but are treated as vibrations and this may
      cause some error
  (4) All equations used are the standard statistical mechanics
      equations for an ideal gas
  (5) All vibrations are strictly harmonic

freq.      30.69  E(vib)   ...       0.55 
freq.      34.53  E(vib)   ...       0.54 
freq.      39.69  E(vib)   ...       0.54 
freq.      54.53  E(vib)   ...       0.52 
freq.      63.64  E(vib)   ...       0.51 
freq.      77.57  E(vib)   ...       0.49 
freq.      95.41  E(vib)   ...       0.47 
freq.      99.19  E(vib)   ...       0.46 
freq.     127.08  E(vib)   ...       0.43 
freq.     138.21  E(vib)   ...       0.42 
freq.     152.80  E(vib)   ...       0.40 
freq.     158.40  E(vib)   ...       0.39 
freq.     172.04  E(vib)   ...       0.38 
freq.     182.42  E(vib)   ...       0.37 
freq.     193.32  E(vib)   ...       0.36 
freq.     203.70  E(vib)   ...       0.35 
freq.     218.71  E(vib)   ...       0.33 
freq.     223.47  E(vib)   ...       0.33 
freq.     233.69  E(vib)   ...       0.32 
freq.     257.55  E(vib)   ...       0.30 
freq.     263.73  E(vib)   ...       0.29 
freq.     279.57  E(vib)   ...       0.28 
freq.     285.38  E(vib)   ...       0.28 
freq.     290.78  E(vib)   ...       0.27 
freq.     307.66  E(vib)   ...       0.26 
freq.     314.96  E(vib)   ...       0.25 
freq.     353.23  E(vib)   ...       0.22 
freq.     372.54  E(vib)   ...       0.21 
freq.     378.89  E(vib)   ...       0.21 
freq.     407.00  E(vib)   ...       0.19 
freq.     436.97  E(vib)   ...       0.17 
freq.     438.49  E(vib)   ...       0.17 
freq.     443.22  E(vib)   ...       0.17 
freq.     448.60  E(vib)   ...       0.17 
freq.     474.94  E(vib)   ...       0.15 
freq.     479.33  E(vib)   ...       0.15 
freq.     500.28  E(vib)   ...       0.14 
freq.     546.52  E(vib)   ...       0.12 
freq.     582.80  E(vib)   ...       0.11 
freq.     591.10  E(vib)   ...       0.10 
freq.     664.53  E(vib)   ...       0.08 
freq.     679.33  E(vib)   ...       0.08 
freq.     711.24  E(vib)   ...       0.07 
freq.     734.65  E(vib)   ...       0.06 
freq.     750.64  E(vib)   ...       0.06 
freq.     776.87  E(vib)   ...       0.05 
freq.     800.29  E(vib)   ...       0.05 
freq.     812.06  E(vib)   ...       0.05 
freq.     851.57  E(vib)   ...       0.04 
freq.     878.87  E(vib)   ...       0.04 
freq.     881.24  E(vib)   ...       0.04 
freq.     899.57  E(vib)   ...       0.03 
freq.     906.65  E(vib)   ...       0.03 
freq.     930.32  E(vib)   ...       0.03 
freq.     934.12  E(vib)   ...       0.03 
freq.     969.00  E(vib)   ...       0.03 
freq.     981.02  E(vib)   ...       0.02 
freq.     982.12  E(vib)   ...       0.02 
freq.    1001.59  E(vib)   ...       0.02 
freq.    1017.80  E(vib)   ...       0.02 
freq.    1024.73  E(vib)   ...       0.02 
freq.    1028.46  E(vib)   ...       0.02 
freq.    1029.58  E(vib)   ...       0.02 
freq.    1037.55  E(vib)   ...       0.02 
freq.    1070.94  E(vib)   ...       0.02 
freq.    1077.42  E(vib)   ...       0.02 
freq.    1085.41  E(vib)   ...       0.02 
freq.    1085.60  E(vib)   ...       0.02 
freq.    1113.53  E(vib)   ...       0.01 
freq.    1119.17  E(vib)   ...       0.01 
freq.    1155.81  E(vib)   ...       0.01 
freq.    1158.41  E(vib)   ...       0.01 
freq.    1183.63  E(vib)   ...       0.01 
freq.    1185.35  E(vib)   ...       0.01 
freq.    1194.91  E(vib)   ...       0.01 
freq.    1201.75  E(vib)   ...       0.01 
freq.    1203.55  E(vib)   ...       0.01 
freq.    1231.24  E(vib)   ...       0.01 
freq.    1236.52  E(vib)   ...       0.01 
freq.    1240.07  E(vib)   ...       0.01 
freq.    1252.78  E(vib)   ...       0.01 
freq.    1255.89  E(vib)   ...       0.01 
freq.    1264.14  E(vib)   ...       0.01 
freq.    1290.52  E(vib)   ...       0.01 
freq.    1293.06  E(vib)   ...       0.01 
freq.    1311.84  E(vib)   ...       0.01 
freq.    1326.46  E(vib)   ...       0.01 
freq.    1330.23  E(vib)   ...       0.01 
freq.    1340.66  E(vib)   ...       0.01 
freq.    1345.93  E(vib)   ...       0.01 
freq.    1401.13  E(vib)   ...       0.00 
freq.    1405.24  E(vib)   ...       0.00 
freq.    1420.09  E(vib)   ...       0.00 
freq.    1423.98  E(vib)   ...       0.00 
freq.    1437.50  E(vib)   ...       0.00 
freq.    1450.07  E(vib)   ...       0.00 
freq.    1451.86  E(vib)   ...       0.00 
freq.    1462.73  E(vib)   ...       0.00 
freq.    1464.40  E(vib)   ...       0.00 
freq.    1464.76  E(vib)   ...       0.00 
freq.    1467.01  E(vib)   ...       0.00 
freq.    1470.48  E(vib)   ...       0.00 
freq.    1473.05  E(vib)   ...       0.00 
freq.    1475.94  E(vib)   ...       0.00 
freq.    1476.50  E(vib)   ...       0.00 
freq.    1482.55  E(vib)   ...       0.00 
freq.    1489.27  E(vib)   ...       0.00 
freq.    1584.05  E(vib)   ...       0.00 
freq.    1596.96  E(vib)   ...       0.00 
freq.    1689.36  E(vib)   ...       0.00 
freq.    1700.84  E(vib)   ...       0.00 
freq.    2883.64  E(vib)   ...       0.00 
freq.    2906.51  E(vib)   ...       0.00 
freq.    2918.01  E(vib)   ...       0.00 
freq.    2919.65  E(vib)   ...       0.00 
freq.    2930.40  E(vib)   ...       0.00 
freq.    2932.35  E(vib)   ...       0.00 
freq.    2948.22  E(vib)   ...       0.00 
freq.    2958.62  E(vib)   ...       0.00 
freq.    2962.40  E(vib)   ...       0.00 
freq.    2976.37  E(vib)   ...       0.00 
freq.    2977.97  E(vib)   ...       0.00 
freq.    3012.24  E(vib)   ...       0.00 
freq.    3017.85  E(vib)   ...       0.00 
freq.    3021.83  E(vib)   ...       0.00 
freq.    3024.11  E(vib)   ...       0.00 
freq.    3026.62  E(vib)   ...       0.00 
freq.    3027.90  E(vib)   ...       0.00 
freq.    3030.05  E(vib)   ...       0.00 
freq.    3041.18  E(vib)   ...       0.00 
freq.    3045.16  E(vib)   ...       0.00 
freq.    3062.22  E(vib)   ...       0.00 
freq.    3074.92  E(vib)   ...       0.00 
freq.    3076.79  E(vib)   ...       0.00 
freq.    3089.84  E(vib)   ...       0.00 

------------
INNER ENERGY
------------

The inner energy is: U= E(el) + E(ZPE) + E(vib) + E(rot) + E(trans)
    E(el)   - is the total energy from the electronic structure calculation
              = E(kin-el) + E(nuc-el) + E(el-el) + E(nuc-nuc)
    E(ZPE)  - the the zero temperature vibrational energy from the frequency calculation
    E(vib)  - the the finite temperature correction to E(ZPE) due to population
              of excited vibrational states
    E(rot)  - is the rotational thermal energy
    E(trans)- is the translational thermal energy

Summary of contributions to the inner energy U:
Electronic energy                ...    -73.24016560 Eh
Zero point energy                ...      0.38032612 Eh     238.66 kcal/mol
Thermal vibrational correction   ...      0.02175712 Eh      13.65 kcal/mol
Thermal rotational correction    ...      0.00141627 Eh       0.89 kcal/mol
Thermal translational correction ...      0.00141627 Eh       0.89 kcal/mol
-----------------------------------------------------------------------
Total thermal energy                    -72.83524981 Eh


Summary of corrections to the electronic energy:
(perhaps to be used in another calculation)
Total thermal correction                  0.02458967 Eh      15.43 kcal/mol
Non-thermal (ZPE) correction              0.38032612 Eh     238.66 kcal/mol
-----------------------------------------------------------------------
Total correction                          0.40491579 Eh     254.09 kcal/mol


--------
ENTHALPY
--------

The enthalpy is H = U + kB*T
                kB is Boltzmann's constant
Total free energy                 ...    -72.83524981 Eh 
Thermal Enthalpy correction       ...      0.00094421 Eh       0.59 kcal/mol
-----------------------------------------------------------------------
Total Enthalpy                    ...    -72.83430560 Eh


Note: Only C1 symmetry has been detected, increase convergence thresholds 
      if your molecule has a higher symmetry. Symmetry factor of 1.0 is   
      used for the rotational entropy correction. 
 

Note: Rotational entropy computed according to Herzberg 
Infrared and Raman Spectra, Chapter V,1, Van Nostrand Reinhold, 1945 
Point Group:  C1, Symmetry Number:   1  
Rotational constants in cm-1:     0.010447     0.007963     0.007016 

Vibrational entropy computed according to the QRRHO of S. Grimme
Chem.Eur.J. 2012 18 9955


-------
ENTROPY
-------

The entropy contributions are T*S = T*(S(el)+S(vib)+S(rot)+S(trans))
     S(el)   - electronic entropy
     S(vib)  - vibrational entropy
     S(rot)  - rotational entropy
     S(trans)- translational entropy
The entropies will be listed as mutliplied by the temperature to get
units of energy

Electronic entropy                ...      0.00000000 Eh      0.00 kcal/mol
Vibrational entropy               ...      0.03848844 Eh     24.15 kcal/mol
Rotational entropy                ...      0.01628713 Eh     10.22 kcal/mol
Translational entropy             ...      0.02116043 Eh     13.28 kcal/mol
-----------------------------------------------------------------------
Final entropy term                ...      0.07593600 Eh     47.65 kcal/mol

In case the symmetry of your molecule has not been determined correctly
or in case you have a reason to use a different symmetry number we print 
out the resulting rotational entropy values for sn=1,12 :
 --------------------------------------------------------
|  sn= 1 | S(rot)=       0.01628713 Eh     10.22 kcal/mol|
|  sn= 2 | S(rot)=       0.01563267 Eh      9.81 kcal/mol|
|  sn= 3 | S(rot)=       0.01524984 Eh      9.57 kcal/mol|
|  sn= 4 | S(rot)=       0.01497821 Eh      9.40 kcal/mol|
|  sn= 5 | S(rot)=       0.01476753 Eh      9.27 kcal/mol|
|  sn= 6 | S(rot)=       0.01459538 Eh      9.16 kcal/mol|
|  sn= 7 | S(rot)=       0.01444984 Eh      9.07 kcal/mol|
|  sn= 8 | S(rot)=       0.01432376 Eh      8.99 kcal/mol|
|  sn= 9 | S(rot)=       0.01421255 Eh      8.92 kcal/mol|
|  sn=10 | S(rot)=       0.01411307 Eh      8.86 kcal/mol|
|  sn=11 | S(rot)=       0.01402308 Eh      8.80 kcal/mol|
|  sn=12 | S(rot)=       0.01394093 Eh      8.75 kcal/mol|
 --------------------------------------------------------


-------------------
GIBBS FREE ENERGY
-------------------

The Gibbs free energy is G = H - T*S

Total enthalpy                    ...    -72.83430560 Eh 
Total entropy correction          ...     -0.07593600 Eh    -47.65 kcal/mol
-----------------------------------------------------------------------
Final Gibbs free energy         ...    -72.91024160 Eh

For completeness - the Gibbs free energy minus the electronic energy
G-E(el)                           ...      0.32992400 Eh    207.03 kcal/mol


Total Time for Numerical Frequencies  :        62.500 sec

Timings for individual modules:

Sum of individual times         ...        0.601 sec (=   0.010 min)
Geometry relaxation             ...        0.336 sec (=   0.006 min)  55.9 %
XTB module                      ...        0.265 sec (=   0.004 min)  44.1 %
                             ****ORCA TERMINATED NORMALLY****
TOTAL RUN TIME: 0 days 0 hours 1 minutes 4 seconds 39 msec
